===== VARIABLES =====
EXE_PATH = /scr/szymansk/2019-3/qe-bin/bin/pw.x
tpp = 4
Parallel keywords = -nimage 1
MPIRUN_EXE = orterun
PATH = /scr/szymansk/2019-3/mmshare-v4.7/lib/Linux-x86_64/openmpi/bin:/scr/szymansk/2019-3/internal/bin:/scr/szymansk/2019-3/mmshare-v4.7/bin/Linux-x86_64:/scr/szymansk/gaopaw/Examples/N/workdir_pp.1:.:/scr/szymansk/gaopaw/Examples/N:/home/szymansk/bin:/scr/szymansk/dakota/bin:/scr/szymansk/atompaw-4.1.0.5/src/:/usr/lib64/qt-3.3/bin:/usr/local/bin:/usr/local/sbin:/usr/bin:/usr/sbin:/bin:/sbin
LD_LIBRARY_PATH = /scr/szymansk/2019-3/mmshare-v4.7/lib/Linux-x86_64/openmpi/lib:/scr/szymansk/2019-3/internal/lib/ssl:/scr/szymansk/2019-3/internal/lib:/scr/szymansk/2019-3/mmshare-v4.7/lib/Linux-x86_64:/scr/szymansk/2019-3/internal/lib/python3.6/site-packages:/scr/szymansk/dakota/bin:/software/lib/Linux-x86_64/ifort_2017.1.132/mkl/lib/intel64
===== END VARIABLES =====
Invoking: exe_cmd () 
{ 
    "$MPIRUN_EXE" -np $tpp "$EXE_PATH" -in $input_file "${P_KEYWORDS[@]}"
}

     Program PWSCF v.6.3MaX starts on 16Jul2019 at 13:52: 1 

     This program is part of the open-source Quantum ESPRESSO suite
     for quantum simulation of materials; please cite
         "P. Giannozzi et al., J. Phys.:Condens. Matter 21 395502 (2009);
         "P. Giannozzi et al., J. Phys.:Condens. Matter 29 465901 (2017);
          URL http://www.quantum-espresso.org", 
     in publications or presentations arising from this work. More details at
     http://www.quantum-espresso.org/quote

     Parallel version (MPI), running on     4 processors

     MPI processes distributed on     1 nodes
     R & G space division:  proc/nbgrp/npool/nimage =       4
     Reading input from N.SC.relax.in
Warning: card &CELL ignored
Warning: card   CELL_DYNAMICS='BFGS' ignored
Warning: card / ignored

     Current dimensions of program PWSCF are:
     Max number of different atomic species (ntypx) = 10
     Max number of k-points (npk) =  40000
     Max angular momentum in pseudopotentials (lmaxx) =  3
               file N.GGA-PBE-paw.UPF: wavefunction(s)  Xn Xn renormalized

     Subspace diagonalization in iterative solution of the eigenvalue problem:
     a serial algorithm will be used

 
     Parallelization info
     --------------------
     sticks:   dense  smooth     PW     G-vecs:    dense   smooth      PW
     Min         546     436    124                19172    13698    2096
     Max         547     438    125                19175    13700    2097
     Sum        2185    1749    497                76693    54795    8385
 


     bravais-lattice index     =            1
     lattice parameter (alat)  =      11.6977  a.u.
     unit-cell volume          =    1600.6686 (a.u.)^3
     number of atoms/cell      =            8
     number of atomic types    =            1
     number of electrons       =        40.00
     number of Kohn-Sham states=           24
     kinetic-energy cutoff     =      40.0000  Ry
     charge density cutoff     =     200.0000  Ry
     convergence threshold     =      1.0E-08
     mixing beta               =       0.7000
     number of iterations used =            8  plain     mixing
     Exchange-correlation      = SLA PW PBX PBC ( 1  4  3  4 0 0)
     nstep                     =           50


     celldm(1)=  11.697700  celldm(2)=   0.000000  celldm(3)=   0.000000
     celldm(4)=   0.000000  celldm(5)=   0.000000  celldm(6)=   0.000000

     crystal axes: (cart. coord. in units of alat)
               a(1) = (   1.000000   0.000000   0.000000 )  
               a(2) = (   0.000000   1.000000   0.000000 )  
               a(3) = (   0.000000   0.000000   1.000000 )  

     reciprocal axes: (cart. coord. in units 2 pi/alat)
               b(1) = (  1.000000  0.000000  0.000000 )  
               b(2) = (  0.000000  1.000000  0.000000 )  
               b(3) = (  0.000000  0.000000  1.000000 )  


     PseudoPot. # 1 for N  read from file:
     ./N.GGA-PBE-paw.UPF
     MD5 check sum: fb6ee57e1840611e3618bb7e40f7eaaf
     Pseudo is Projector augmented-wave + core cor, Zval =  5.0
     Generated using ATOMPAW code
     Shape of augmentation charge: SINC**2
     Using radial grid of 2342 points,  4 beta functions with: 
                l(1) =   0
                l(2) =   0
                l(3) =   1
                l(4) =   1
     Q(r) pseudized with 0 coefficients 


     atomic species   valence    mass     pseudopotential
        N              5.00    14.00674     N ( 1.00)

     24 Sym. Ops., with inversion, found (18 have fractional translation)



   Cartesian axes

     site n.     atom                  positions (alat units)
         1           N   tau(   1) = (   0.5518900   0.5518900   0.5518900  )
         2           N   tau(   2) = (   0.9481100   0.4481100   0.0518900  )
         3           N   tau(   3) = (   0.4481100   0.0518900   0.9481100  )
         4           N   tau(   4) = (   0.0518900   0.9481100   0.4481100  )
         5           N   tau(   5) = (   0.4481100   0.4481100   0.4481100  )
         6           N   tau(   6) = (   0.0518900   0.5518900   0.9481100  )
         7           N   tau(   7) = (   0.5518900   0.9481100   0.0518900  )
         8           N   tau(   8) = (   0.9481100   0.0518900   0.5518900  )

     number of k points=    45  Fermi-Dirac smearing, width (Ry)=  0.0020
                       cart. coord. in units 2pi/alat
        k(    1) = (   0.0000000   0.0000000   0.0000000), wk =   0.0039062
        k(    2) = (   0.0000000   0.0000000   0.1250000), wk =   0.0234375
        k(    3) = (   0.0000000   0.0000000   0.2500000), wk =   0.0234375
        k(    4) = (   0.0000000   0.0000000   0.3750000), wk =   0.0234375
        k(    5) = (   0.0000000   0.0000000  -0.5000000), wk =   0.0117188
        k(    6) = (   0.0000000   0.1250000   0.1250000), wk =   0.0468750
        k(    7) = (   0.0000000   0.1250000   0.2500000), wk =   0.0468750
        k(    8) = (   0.0000000   0.1250000   0.3750000), wk =   0.0468750
        k(    9) = (   0.0000000   0.1250000  -0.5000000), wk =   0.0234375
        k(   10) = (   0.0000000   0.2500000   0.2500000), wk =   0.0468750
        k(   11) = (   0.0000000   0.2500000   0.3750000), wk =   0.0468750
        k(   12) = (   0.0000000   0.2500000  -0.5000000), wk =   0.0234375
        k(   13) = (   0.0000000   0.3750000   0.3750000), wk =   0.0468750
        k(   14) = (   0.0000000   0.3750000  -0.5000000), wk =   0.0234375
        k(   15) = (   0.0000000  -0.5000000  -0.5000000), wk =   0.0117188
        k(   16) = (   0.1250000   0.1250000   0.1250000), wk =   0.0312500
        k(   17) = (   0.1250000   0.1250000   0.2500000), wk =   0.0937500
        k(   18) = (   0.1250000   0.1250000   0.3750000), wk =   0.0937500
        k(   19) = (   0.1250000   0.1250000  -0.5000000), wk =   0.0468750
        k(   20) = (   0.1250000   0.2500000   0.2500000), wk =   0.0937500
        k(   21) = (   0.1250000   0.2500000   0.3750000), wk =   0.0937500
        k(   22) = (   0.1250000   0.2500000  -0.5000000), wk =   0.0468750
        k(   23) = (   0.1250000   0.3750000   0.3750000), wk =   0.0937500
        k(   24) = (   0.1250000   0.3750000  -0.5000000), wk =   0.0468750
        k(   25) = (   0.1250000  -0.5000000  -0.5000000), wk =   0.0234375
        k(   26) = (   0.2500000   0.2500000   0.2500000), wk =   0.0312500
        k(   27) = (   0.2500000   0.2500000   0.3750000), wk =   0.0937500
        k(   28) = (   0.2500000   0.2500000  -0.5000000), wk =   0.0468750
        k(   29) = (   0.2500000   0.3750000   0.3750000), wk =   0.0937500
        k(   30) = (   0.2500000   0.3750000  -0.5000000), wk =   0.0468750
        k(   31) = (   0.2500000  -0.5000000  -0.5000000), wk =   0.0234375
        k(   32) = (   0.3750000   0.3750000   0.3750000), wk =   0.0312500
        k(   33) = (   0.3750000   0.3750000  -0.5000000), wk =   0.0468750
        k(   34) = (   0.3750000  -0.5000000  -0.5000000), wk =   0.0234375
        k(   35) = (  -0.5000000  -0.5000000  -0.5000000), wk =   0.0039062
        k(   36) = (   0.0000000   0.2500000   0.1250000), wk =   0.0468750
        k(   37) = (   0.0000000   0.3750000   0.1250000), wk =   0.0468750
        k(   38) = (   0.0000000  -0.5000000   0.1250000), wk =   0.0234375
        k(   39) = (   0.0000000   0.3750000   0.2500000), wk =   0.0468750
        k(   40) = (   0.0000000  -0.5000000   0.2500000), wk =   0.0234375
        k(   41) = (   0.0000000  -0.5000000   0.3750000), wk =   0.0234375
        k(   42) = (  -0.1250000   0.3750000   0.2500000), wk =   0.0937500
        k(   43) = (  -0.1250000  -0.5000000   0.2500000), wk =   0.0468750
        k(   44) = (  -0.1250000  -0.5000000   0.3750000), wk =   0.0468750
        k(   45) = (  -0.2500000  -0.5000000   0.3750000), wk =   0.0468750

     Dense  grid:    76693 G-vectors     FFT dimensions: (  54,  54,  54)

     Smooth grid:    54795 G-vectors     FFT dimensions: (  48,  48,  48)

     Estimated max dynamical RAM per process >      60.97 MB

     Estimated total dynamical RAM >     243.87 MB

     Check: negative/imaginary core charge=   -0.000001    0.000000

     Initial potential from superposition of free atoms

     starting charge   39.99994, renormalised to   40.00000
     Starting wfcs are   64 randomized atomic wfcs
     Checking if some PAW data can be deallocated... 

     total cpu time spent up to now is        3.9 secs

     Self-consistent Calculation

     iteration #  1     ecut=    40.00 Ry     beta= 0.70
     Davidson diagonalization with overlap
     ethr =  1.00E-02,  avg # of iterations =  3.0

     total cpu time spent up to now is        6.8 secs

     total energy              =    -224.23406610 Ry
     Harris-Foulkes estimate   =    -224.71509900 Ry
     estimated scf accuracy    <       0.52693076 Ry

     iteration #  2     ecut=    40.00 Ry     beta= 0.70
     Davidson diagonalization with overlap
     ethr =  1.32E-03,  avg # of iterations =  2.1

     total cpu time spent up to now is       10.2 secs

     total energy              =    -224.33399270 Ry
     Harris-Foulkes estimate   =    -224.35967064 Ry
     estimated scf accuracy    <       0.04593759 Ry

     iteration #  3     ecut=    40.00 Ry     beta= 0.70
     Davidson diagonalization with overlap
     ethr =  1.15E-04,  avg # of iterations =  2.0

     total cpu time spent up to now is       13.3 secs

     total energy              =    -224.34339969 Ry
     Harris-Foulkes estimate   =    -224.34398152 Ry
     estimated scf accuracy    <       0.00170686 Ry

     iteration #  4     ecut=    40.00 Ry     beta= 0.70
     Davidson diagonalization with overlap
     ethr =  4.27E-06,  avg # of iterations =  4.2

     total cpu time spent up to now is       16.2 secs

     total energy              =    -224.34375931 Ry
     Harris-Foulkes estimate   =    -224.34376054 Ry
     estimated scf accuracy    <       0.00001707 Ry

     iteration #  5     ecut=    40.00 Ry     beta= 0.70
     Davidson diagonalization with overlap
     ethr =  4.27E-08,  avg # of iterations =  8.3

     total cpu time spent up to now is       20.5 secs

     total energy              =    -224.34377167 Ry
     Harris-Foulkes estimate   =    -224.34377120 Ry
     estimated scf accuracy    <       0.00000067 Ry

     iteration #  6     ecut=    40.00 Ry     beta= 0.70
     Davidson diagonalization with overlap
     ethr =  1.68E-09,  avg # of iterations =  2.3

     total cpu time spent up to now is       22.7 secs

     total energy              =    -224.34377191 Ry
     Harris-Foulkes estimate   =    -224.34377181 Ry
     estimated scf accuracy    <       0.00000005 Ry

     iteration #  7     ecut=    40.00 Ry     beta= 0.70
     Davidson diagonalization with overlap
     ethr =  1.28E-10,  avg # of iterations =  2.5

     total cpu time spent up to now is       24.8 secs

     End of self-consistent calculation

          k = 0.0000 0.0000 0.0000 (  6859 PWs)   bands (ev):

   -24.6499 -24.6224 -24.6224 -24.6224 -10.2823 -10.2823 -10.2823 -10.2212
    -7.7307  -7.7307  -7.7307  -7.6197  -7.6197  -7.5355  -7.5355  -7.5355
    -6.9376  -6.4375  -6.4375  -6.4375   1.1194   1.1194   1.1195   1.7097

          k = 0.0000 0.0000 0.1250 (  6867 PWs)   bands (ev):

   -24.6478 -24.6260 -24.6240 -24.6170 -10.2826 -10.2811 -10.2798 -10.2313
    -7.7346  -7.7240  -7.7227  -7.6483  -7.6428  -7.5669  -7.5509  -7.5494
    -6.9041  -6.4559  -6.4415  -6.4261   1.1308   1.1372   1.1509   1.7063

          k = 0.0000 0.0000 0.2500 (  6836 PWs)   bands (ev):

   -24.6380 -24.6199 -24.6157 -24.6099 -10.2812 -10.2811 -10.2718 -10.2302
    -7.7346  -7.7078  -7.7027  -7.6473  -7.6301  -7.6052  -7.5657  -7.5561
    -6.8176  -6.4772  -6.4223  -6.4079   1.1990   1.1996   1.2611   1.6981

          k = 0.0000 0.0000 0.3750 (  6860 PWs)   bands (ev):

   -24.6370 -24.6211 -24.6141 -24.6136 -10.2873 -10.2854 -10.2641 -10.2426
    -7.7566  -7.7162  -7.6930  -7.6646  -7.6475  -7.6185  -7.6155  -7.5770
    -6.7144  -6.5399  -6.4187  -6.4177   1.2450   1.2607   1.3981   1.6554

          k = 0.0000 0.0000-0.5000 (  6848 PWs)   bands (ev):

   -24.6277 -24.6277 -24.6154 -24.6154 -10.2838 -10.2838 -10.2513 -10.2513
    -7.7305  -7.7305  -7.6839  -7.6839  -7.6202  -7.6202  -7.6008  -7.6008
    -6.6174  -6.6174  -6.4191  -6.4191   1.2866   1.2868   1.5575   1.5586

          k = 0.0000 0.1250 0.1250 (  6855 PWs)   bands (ev):

   -24.6398 -24.6191 -24.6165 -24.6160 -10.2840 -10.2816 -10.2794 -10.2303
    -7.7349  -7.7300  -7.7147  -7.6461  -7.6416  -7.5930  -7.5511  -7.5401
    -6.8668  -6.4413  -6.4359  -6.4258   1.1542   1.1723   1.1792   1.7067

          k = 0.0000 0.1250 0.2500 (  6837 PWs)   bands (ev):

   -24.6389 -24.6146 -24.6141 -24.6103 -10.2808 -10.2797 -10.2729 -10.2357
    -7.7378  -7.7055  -7.7039  -7.6536  -7.6299  -7.6247  -7.5634  -7.5599
    -6.7994  -6.4647  -6.4261  -6.4134   1.2069   1.2372   1.2889   1.6866

          k = 0.0000 0.1250 0.3750 (  6815 PWs)   bands (ev):

   -24.6317 -24.6178 -24.6085 -24.6070 -10.2815 -10.2787 -10.2592 -10.2375
    -7.7364  -7.6945  -7.6808  -7.6539  -7.6246  -7.6020  -7.5766  -7.5648
    -6.6987  -6.5278  -6.4122  -6.4090   1.2811   1.3050   1.4134   1.6765

          k = 0.0000 0.1250-0.5000 (  6842 PWs)   bands (ev):

   -24.6284 -24.6284 -24.6118 -24.6118 -10.2827 -10.2827 -10.2515 -10.2515
    -7.7381  -7.7381  -7.6662  -7.6662  -7.6134  -7.6134  -7.5943  -7.5943
    -6.6128  -6.6128  -6.4200  -6.4200   1.3160   1.3161   1.5667   1.5708

          k = 0.0000 0.2500 0.2500 (  6849 PWs)   bands (ev):

   -24.6346 -24.6165 -24.6138 -24.6120 -10.2850 -10.2758 -10.2750 -10.2421
    -7.7479  -7.7264  -7.6880  -7.6489  -7.6411  -7.6347  -7.5761  -7.5665
    -6.7471  -6.4637  -6.4598  -6.4195   1.2646   1.3229   1.3242   1.6788

          k = 0.0000 0.2500 0.3750 (  6826 PWs)   bands (ev):

   -24.6306 -24.6176 -24.6128 -24.6058 -10.2818 -10.2760 -10.2629 -10.2458
    -7.7475  -7.7004  -7.6957  -7.6457  -7.6200  -7.5994  -7.5688  -7.5685
    -6.6663  -6.5178  -6.4477  -6.4183   1.3270   1.3755   1.4487   1.6596

          k = 0.0000 0.2500-0.5000 (  6838 PWs)   bands (ev):

   -24.6231 -24.6231 -24.6136 -24.6136 -10.2809 -10.2809 -10.2554 -10.2554
    -7.7340  -7.7340  -7.6774  -7.6774  -7.6013  -7.6013  -7.5850  -7.5850
    -6.5872  -6.5872  -6.4407  -6.4407   1.3785   1.3787   1.5844   1.5924

          k = 0.0000 0.3750 0.3750 (  6838 PWs)   bands (ev):

   -24.6270 -24.6177 -24.6158 -24.6103 -10.2804 -10.2708 -10.2701 -10.2543
    -7.7466  -7.7256  -7.7071  -7.6638  -7.6100  -7.5995  -7.5704  -7.5611
    -6.6143  -6.4984  -6.4945  -6.4468   1.3959   1.4802   1.4819   1.6350

          k = 0.0000 0.3750-0.5000 (  6838 PWs)   bands (ev):

   -24.6196 -24.6196 -24.6147 -24.6147 -10.2778 -10.2778 -10.2611 -10.2611
    -7.7365  -7.7365  -7.7007  -7.7007  -7.5911  -7.5911  -7.5791  -7.5791
    -6.5493  -6.5493  -6.4723  -6.4723   1.4593   1.4595   1.6012   1.6063

          k = 0.0000-0.5000-0.5000 (  6872 PWs)   bands (ev):

   -24.6206 -24.6206 -24.6206 -24.6206 -10.2741 -10.2741 -10.2741 -10.2741
    -7.7412  -7.7412  -7.7412  -7.7412  -7.5974  -7.5974  -7.5974  -7.5974
    -6.5160  -6.5160  -6.5160  -6.5160   1.5457   1.5457   1.5458   1.5465

          k = 0.1250 0.1250 0.1250 (  6847 PWs)   bands (ev):

   -24.6375 -24.6178 -24.6178 -24.6150 -10.2801 -10.2801 -10.2789 -10.2332
    -7.7415  -7.7142  -7.7142  -7.6413  -7.6413  -7.6108  -7.5477  -7.5477
    -6.8423  -6.4373  -6.4373  -6.4324   1.1866   1.2007   1.2008   1.7109

          k = 0.1250 0.1250 0.2500 (  6838 PWs)   bands (ev):

   -24.6376 -24.6176 -24.6162 -24.6085 -10.2812 -10.2791 -10.2722 -10.2371
    -7.7453  -7.7077  -7.6844  -7.6442  -7.6370  -7.6250  -7.5670  -7.5539
    -6.7811  -6.4676  -6.4340  -6.4208   1.2308   1.2621   1.2997   1.6994

          k = 0.1250 0.1250 0.3750 (  6817 PWs)   bands (ev):

   -24.6315 -24.6151 -24.6101 -24.6089 -10.2801 -10.2789 -10.2592 -10.2419
    -7.7424  -7.7109  -7.6644  -7.6502  -7.6299  -7.6057  -7.5780  -7.5527
    -6.6916  -6.5187  -6.4225  -6.4170   1.3014   1.3282   1.4339   1.6562

          k = 0.1250 0.1250-0.5000 (  6838 PWs)   bands (ev):

   -24.6256 -24.6256 -24.6121 -24.6121 -10.2833 -10.2833 -10.2516 -10.2516
    -7.7388  -7.7388  -7.6669  -7.6669  -7.6173  -7.6173  -7.5790  -7.5790
    -6.6026  -6.6026  -6.4271  -6.4271   1.3410   1.3415   1.5641   1.5720

          k = 0.1250 0.2500 0.2500 (  6839 PWs)   bands (ev):

   -24.6354 -24.6186 -24.6146 -24.6103 -10.2812 -10.2745 -10.2741 -10.2423
    -7.7524  -7.7038  -7.6835  -7.6628  -7.6334  -7.6203  -7.5636  -7.5557
    -6.7374  -6.4674  -6.4560  -6.4287   1.2824   1.3430   1.3512   1.6704

          k = 0.1250 0.2500 0.3750 (  6835 PWs)   bands (ev):

   -24.6316 -24.6173 -24.6150 -24.6089 -10.2824 -10.2775 -10.2661 -10.2467
    -7.7504  -7.7153  -7.6904  -7.6632  -7.6123  -7.5974  -7.5763  -7.5677
    -6.6634  -6.5131  -6.4542  -6.4323   1.3423   1.3919   1.4611   1.6524

          k = 0.1250 0.2500-0.5000 (  6838 PWs)   bands (ev):

   -24.6250 -24.6250 -24.6139 -24.6139 -10.2802 -10.2802 -10.2563 -10.2563
    -7.7377  -7.7377  -7.6715  -7.6715  -7.6001  -7.6001  -7.5815  -7.5815
    -6.5838  -6.5838  -6.4485  -6.4485   1.3955   1.3955   1.5880   1.5902

          k = 0.1250 0.3750 0.3750 (  6848 PWs)   bands (ev):

   -24.6291 -24.6175 -24.6154 -24.6133 -10.2817 -10.2731 -10.2722 -10.2560
    -7.7536  -7.7272  -7.7123  -7.6788  -7.6137  -7.5991  -7.5759  -7.5671
    -6.6156  -6.5008  -6.4954  -6.4566   1.4101   1.4855   1.5028   1.6511

          k = 0.1250 0.3750-0.5000 (  6824 PWs)   bands (ev):

   -24.6198 -24.6198 -24.6109 -24.6109 -10.2741 -10.2741 -10.2627 -10.2627
    -7.7303  -7.7303  -7.6964  -7.6964  -7.5788  -7.5788  -7.5729  -7.5729
    -6.5477  -6.5477  -6.4699  -6.4699   1.4773   1.4777   1.6105   1.6179

          k = 0.1250-0.5000-0.5000 (  6848 PWs)   bands (ev):

   -24.6164 -24.6164 -24.6164 -24.6164 -10.2722 -10.2722 -10.2722 -10.2722
    -7.7294  -7.7294  -7.7294  -7.7294  -7.5823  -7.5823  -7.5823  -7.5823
    -6.5121  -6.5121  -6.5121  -6.5121   1.5502   1.5502   1.5508   1.5514

          k = 0.2500 0.2500 0.2500 (  6809 PWs)   bands (ev):

   -24.6281 -24.6137 -24.6098 -24.6098 -10.2740 -10.2740 -10.2725 -10.2433
    -7.7495  -7.6872  -7.6872  -7.6628  -7.6071  -7.6071  -7.5538  -7.5538
    -6.6889  -6.4507  -6.4507  -6.4505   1.3528   1.4076   1.4077   1.6737

          k = 0.2500 0.2500 0.3750 (  6844 PWs)   bands (ev):

   -24.6290 -24.6206 -24.6174 -24.6139 -10.2800 -10.2791 -10.2696 -10.2517
    -7.7592  -7.7238  -7.6890  -7.6790  -7.6143  -7.5931  -7.5719  -7.5585
    -6.6391  -6.5153  -6.4674  -6.4602   1.3862   1.4458   1.4962   1.6278

          k = 0.2500 0.2500-0.5000 (  6834 PWs)   bands (ev):

   -24.6237 -24.6237 -24.6144 -24.6144 -10.2776 -10.2776 -10.2606 -10.2606
    -7.7374  -7.7374  -7.6825  -7.6825  -7.5937  -7.5937  -7.5628  -7.5628
    -6.5704  -6.5704  -6.4629  -6.4629   1.4424   1.4425   1.6020   1.6244

          k = 0.2500 0.3750 0.3750 (  6855 PWs)   bands (ev):

   -24.6282 -24.6197 -24.6186 -24.6159 -10.2807 -10.2753 -10.2745 -10.2592
    -7.7582  -7.7244  -7.7149  -7.6968  -7.6020  -7.5917  -7.5684  -7.5638
    -6.6045  -6.5097  -6.5041  -6.4808   1.4429   1.5140   1.5334   1.6062

          k = 0.2500 0.3750-0.5000 (  6852 PWs)   bands (ev):

   -24.6231 -24.6231 -24.6168 -24.6168 -10.2782 -10.2782 -10.2667 -10.2667
    -7.7419  -7.7419  -7.7046  -7.7046  -7.5873  -7.5873  -7.5675  -7.5675
    -6.5535  -6.5535  -6.4928  -6.4928   1.4949   1.4957   1.5912   1.5962

          k = 0.2500-0.5000-0.5000 (  6860 PWs)   bands (ev):

   -24.6194 -24.6194 -24.6194 -24.6194 -10.2748 -10.2748 -10.2748 -10.2748
    -7.7322  -7.7322  -7.7322  -7.7322  -7.5779  -7.5779  -7.5779  -7.5779
    -6.5240  -6.5240  -6.5240  -6.5240   1.5489   1.5493   1.5499   1.5506

          k = 0.3750 0.3750 0.3750 (  6839 PWs)   bands (ev):

   -24.6249 -24.6202 -24.6144 -24.6144 -10.2756 -10.2734 -10.2734 -10.2637
    -7.7475  -7.7204  -7.7096  -7.7096  -7.5816  -7.5816  -7.5539  -7.5539
    -6.5831  -6.5142  -6.5037  -6.5037   1.4975   1.5598   1.5599   1.5762

          k = 0.3750 0.3750-0.5000 (  6854 PWs)   bands (ev):

   -24.6217 -24.6217 -24.6173 -24.6173 -10.2779 -10.2779 -10.2704 -10.2704
    -7.7397  -7.7397  -7.7201  -7.7201  -7.5795  -7.5795  -7.5610  -7.5610
    -6.5481  -6.5481  -6.5141  -6.5141   1.5261   1.5264   1.5754   1.5766

          k = 0.3750-0.5000-0.5000 (  6844 PWs)   bands (ev):

   -24.6188 -24.6188 -24.6188 -24.6188 -10.2734 -10.2734 -10.2734 -10.2734
    -7.7304  -7.7304  -7.7304  -7.7304  -7.5605  -7.5605  -7.5605  -7.5605
    -6.5320  -6.5320  -6.5320  -6.5320   1.5528   1.5529   1.5531   1.5537

          k =-0.5000-0.5000-0.5000 (  6776 PWs)   bands (ev):

   -24.6078 -24.6078 -24.6078 -24.6078 -10.2677 -10.2677 -10.2677 -10.2677
    -7.7087  -7.7087  -7.7087  -7.7087  -7.5283  -7.5283  -7.5283  -7.5283
    -6.5120  -6.5120  -6.5120  -6.5120   1.5774   1.5774   1.5776   1.5779

          k = 0.0000 0.2500 0.1250 (  6837 PWs)   bands (ev):

   -24.6378 -24.6171 -24.6126 -24.6103 -10.2810 -10.2801 -10.2723 -10.2357
    -7.7317  -7.7262  -7.6842  -7.6494  -7.6339  -7.6288  -7.5735  -7.5495
    -6.7984  -6.4693  -6.4255  -6.4117   1.2123   1.2431   1.2825   1.6937

          k = 0.0000 0.3750 0.1250 (  6815 PWs)   bands (ev):

   -24.6303 -24.6153 -24.6099 -24.6093 -10.2806 -10.2795 -10.2593 -10.2378
    -7.7370  -7.7167  -7.6584  -7.6455  -7.6378  -7.6087  -7.5798  -7.5472
    -6.6985  -6.5238  -6.4166  -6.4111   1.2813   1.3055   1.4261   1.6631

          k = 0.0000-0.5000 0.1250 (  6842 PWs)   bands (ev):

   -24.6286 -24.6286 -24.6116 -24.6116 -10.2824 -10.2824 -10.2517 -10.2517
    -7.7326  -7.7326  -7.6674  -7.6674  -7.6319  -7.6319  -7.5783  -7.5783
    -6.6139  -6.6139  -6.4204  -6.4204   1.3191   1.3198   1.5538   1.5556

          k = 0.0000 0.3750 0.2500 (  6826 PWs)   bands (ev):

   -24.6290 -24.6170 -24.6107 -24.6100 -10.2809 -10.2756 -10.2637 -10.2462
    -7.7352  -7.7312  -7.6665  -7.6457  -7.6305  -7.6164  -7.5675  -7.5540
    -6.6641  -6.5161  -6.4435  -6.4259   1.3347   1.3734   1.4522   1.6555

          k = 0.0000-0.5000 0.2500 (  6838 PWs)   bands (ev):

   -24.6241 -24.6241 -24.6126 -24.6126 -10.2806 -10.2806 -10.2554 -10.2554
    -7.7392  -7.7392  -7.6640  -7.6640  -7.6298  -7.6298  -7.5656  -7.5656
    -6.5868  -6.5868  -6.4398  -6.4398   1.3827   1.3829   1.5764   1.5974

          k = 0.0000-0.5000 0.3750 (  6838 PWs)   bands (ev):

   -24.6191 -24.6191 -24.6151 -24.6151 -10.2773 -10.2773 -10.2619 -10.2619
    -7.7440  -7.7440  -7.6953  -7.6953  -7.6046  -7.6046  -7.5625  -7.5625
    -6.5491  -6.5491  -6.4733  -6.4733   1.4694   1.4697   1.6020   1.6104

          k =-0.1250 0.3750 0.2500 (  6835 PWs)   bands (ev):

   -24.6304 -24.6205 -24.6128 -24.6091 -10.2807 -10.2775 -10.2668 -10.2476
    -7.7471  -7.7246  -7.6822  -7.6616  -7.6234  -7.6052  -7.5752  -7.5543
    -6.6620  -6.5176  -6.4503  -6.4325   1.3486   1.3984   1.4653   1.6446

          k =-0.1250-0.5000 0.2500 (  6838 PWs)   bands (ev):

   -24.6267 -24.6267 -24.6122 -24.6122 -10.2803 -10.2803 -10.2564 -10.2564
    -7.7416  -7.7416  -7.6695  -7.6695  -7.6158  -7.6158  -7.5638  -7.5638
    -6.5876  -6.5876  -6.4444  -6.4444   1.4020   1.4021   1.5807   1.5850

          k =-0.1250-0.5000 0.3750 (  6824 PWs)   bands (ev):

   -24.6212 -24.6212 -24.6095 -24.6095 -10.2743 -10.2743 -10.2622 -10.2622
    -7.7339  -7.7339  -7.6889  -7.6889  -7.5979  -7.5979  -7.5572  -7.5572
    -6.5516  -6.5516  -6.4668  -6.4668   1.4841   1.4844   1.6007   1.6065

          k =-0.2500-0.5000 0.3750 (  6852 PWs)   bands (ev):

   -24.6227 -24.6227 -24.6171 -24.6171 -10.2786 -10.2786 -10.2667 -10.2667
    -7.7405  -7.7405  -7.7096  -7.7096  -7.5878  -7.5878  -7.5629  -7.5629
    -6.5530  -6.5530  -6.4934  -6.4934   1.4965   1.4966   1.5927   1.6108

     the Fermi energy is    -4.8521 ev

!    total energy              =    -224.34377192 Ry
     Harris-Foulkes estimate   =    -224.34377192 Ry
     estimated scf accuracy    <          5.6E-10 Ry

     total all-electron energy =      -224.343772 Ry

     The total energy is the sum of the following terms:

     one-electron contribution =    -137.79202107 Ry
     hartree contribution      =      78.92191649 Ry
     xc contribution           =     -39.48854879 Ry
     ewald contribution        =     -57.27163594 Ry
     one-center paw contrib.   =     -68.71348261 Ry
     smearing contrib. (-TS)   =       0.00000000 Ry

     convergence has been achieved in   7 iterations

     Forces acting on atoms (cartesian axes, Ry/au):

     atom    1 type  1   force =     0.03997569    0.03997569    0.03997569
     atom    2 type  1   force =    -0.03997569   -0.03997569    0.03997569
     atom    3 type  1   force =    -0.03997569    0.03997569   -0.03997569
     atom    4 type  1   force =     0.03997569   -0.03997569   -0.03997569
     atom    5 type  1   force =    -0.03997569   -0.03997569   -0.03997569
     atom    6 type  1   force =     0.03997569    0.03997569   -0.03997569
     atom    7 type  1   force =     0.03997569   -0.03997569    0.03997569
     atom    8 type  1   force =    -0.03997569    0.03997569    0.03997569

     Total force =     0.195840     Total SCF correction =     0.000063

     BFGS Geometry Optimization

     number of scf cycles    =   1
     number of bfgs steps    =   0

     energy   new            =    -224.3437719151 Ry

     new trust radius        =       0.0692399267 bohr
     new conv_thr            =       0.0000000100 Ry


ATOMIC_POSITIONS (crystal)
N        0.555307397   0.555307397   0.555307397
N        0.944692603   0.444692603   0.055307397
N        0.444692603   0.055307397   0.944692603
N        0.055307397   0.944692603   0.444692603
N        0.444692603   0.444692603   0.444692603
N        0.055307397   0.555307397   0.944692603
N        0.555307397   0.944692603   0.055307397
N        0.944692603   0.055307397   0.555307397



     Writing output data file relax.save/
     NEW-OLD atomic charge density approx. for the potential

     Check: negative/imaginary core charge=   -0.000001    0.000000

     total cpu time spent up to now is       25.5 secs

     Self-consistent Calculation

     iteration #  1     ecut=    40.00 Ry     beta= 0.70
     Davidson diagonalization with overlap
     ethr =  1.00E-06,  avg # of iterations =  6.5

     total cpu time spent up to now is       30.5 secs

     total energy              =    -224.25838147 Ry
     Harris-Foulkes estimate   =    -224.26850335 Ry
     estimated scf accuracy    <       0.03508074 Ry

     iteration #  2     ecut=    40.00 Ry     beta= 0.70
     Davidson diagonalization with overlap
     ethr =  8.77E-05,  avg # of iterations =  2.0

     total cpu time spent up to now is       32.9 secs

     total energy              =    -224.26672282 Ry
     Harris-Foulkes estimate   =    -224.26882974 Ry
     estimated scf accuracy    <       0.00363610 Ry

     iteration #  3     ecut=    40.00 Ry     beta= 0.70
     Davidson diagonalization with overlap
     ethr =  9.09E-06,  avg # of iterations =  2.0

     total cpu time spent up to now is       35.1 secs

     total energy              =    -224.26752866 Ry
     Harris-Foulkes estimate   =    -224.26751232 Ry
     estimated scf accuracy    <       0.00008548 Ry

     iteration #  4     ecut=    40.00 Ry     beta= 0.70
     Davidson diagonalization with overlap
     ethr =  2.14E-07,  avg # of iterations =  2.0

     total cpu time spent up to now is       37.1 secs

     total energy              =    -224.26753689 Ry
     Harris-Foulkes estimate   =    -224.26753673 Ry
     estimated scf accuracy    <       0.00000172 Ry

     iteration #  5     ecut=    40.00 Ry     beta= 0.70
     Davidson diagonalization with overlap
     ethr =  4.29E-09,  avg # of iterations =  4.4

     total cpu time spent up to now is       40.3 secs

     total energy              =    -224.26753824 Ry
     Harris-Foulkes estimate   =    -224.26753822 Ry
     estimated scf accuracy    <       0.00000003 Ry

     iteration #  6     ecut=    40.00 Ry     beta= 0.70
     Davidson diagonalization with overlap
     ethr =  8.05E-11,  avg # of iterations =  3.0

     total cpu time spent up to now is       42.7 secs

     End of self-consistent calculation

          k = 0.0000 0.0000 0.0000 (  6859 PWs)   bands (ev):

   -23.5651 -23.5257 -23.5257 -23.5257 -10.7917 -10.7917 -10.7917 -10.7343
    -7.1888  -7.1888  -7.1888  -7.0657  -7.0657  -6.9739  -6.9739  -6.9739
    -6.7600  -6.2660  -6.2660  -6.2660   0.4778   0.4778   0.4778   0.9724

          k = 0.0000 0.0000 0.1250 (  6867 PWs)   bands (ev):

   -23.5594 -23.5282 -23.5257 -23.5224 -10.7940 -10.7903 -10.7901 -10.7403
    -7.1949  -7.1819  -7.1813  -7.0883  -7.0856  -7.0168  -6.9842  -6.9840
    -6.7034  -6.2789  -6.2671  -6.2601   0.4823   0.4898   0.5015   0.9684

          k = 0.0000 0.0000 0.2500 (  6836 PWs)   bands (ev):

   -23.5494 -23.5258 -23.5206 -23.5178 -10.7920 -10.7894 -10.7816 -10.7401
    -7.1993  -7.1655  -7.1636  -7.0889  -7.0716  -7.0667  -6.9988  -6.9878
    -6.6018  -6.2937  -6.2495  -6.2457   0.5449   0.5449   0.6011   0.9623

          k = 0.0000 0.0000 0.3750 (  6860 PWs)   bands (ev):

   -23.5430 -23.5298 -23.5213 -23.5197 -10.7950 -10.7934 -10.7731 -10.7514
    -7.2219  -7.1948  -7.1465  -7.1109  -7.0947  -7.0575  -7.0494  -7.0063
    -6.4885  -6.3489  -6.2545  -6.2478   0.5798   0.5975   0.7064   0.9217

          k = 0.0000 0.0000-0.5000 (  6848 PWs)   bands (ev):

   -23.5348 -23.5348 -23.5220 -23.5220 -10.7930 -10.7930 -10.7612 -10.7612
    -7.2095  -7.2095  -7.1348  -7.1348  -7.0596  -7.0596  -7.0340  -7.0340
    -6.4007  -6.4007  -6.2504  -6.2504   0.6216   0.6217   0.8463   0.8470

          k = 0.0000 0.1250 0.1250 (  6855 PWs)   bands (ev):

   -23.5521 -23.5241 -23.5225 -23.5217 -10.7920 -10.7907 -10.7884 -10.7390
    -7.1982  -7.1903  -7.1688  -7.0875  -7.0824  -7.0425  -6.9832  -6.9710
    -6.6640  -6.2716  -6.2673  -6.2579   0.5044   0.5194   0.5259   0.9666

          k = 0.0000 0.1250 0.2500 (  6837 PWs)   bands (ev):

   -23.5494 -23.5217 -23.5203 -23.5175 -10.7898 -10.7889 -10.7828 -10.7438
    -7.2061  -7.1660  -7.1642  -7.0965  -7.0797  -7.0695  -6.9958  -6.9933
    -6.5809  -6.2847  -6.2575  -6.2455   0.5513   0.5763   0.6231   0.9495

          k = 0.0000 0.1250 0.3750 (  6815 PWs)   bands (ev):

   -23.5403 -23.5269 -23.5173 -23.5158 -10.7896 -10.7891 -10.7693 -10.7482
    -7.2067  -7.1736  -7.1380  -7.1036  -7.0703  -7.0405  -7.0131  -6.9949
    -6.4767  -6.3334  -6.2482  -6.2366   0.6178   0.6392   0.7241   0.9407

          k = 0.0000 0.1250-0.5000 (  6842 PWs)   bands (ev):

   -23.5362 -23.5362 -23.5202 -23.5202 -10.7913 -10.7913 -10.7614 -10.7614
    -7.2154  -7.2154  -7.1184  -7.1184  -7.0516  -7.0516  -7.0292  -7.0292
    -6.4016  -6.4016  -6.2525  -6.2525   0.6466   0.6466   0.8528   0.8529

          k = 0.0000 0.2500 0.2500 (  6849 PWs)   bands (ev):

   -23.5453 -23.5235 -23.5230 -23.5187 -10.7918 -10.7845 -10.7834 -10.7502
    -7.2175  -7.1904  -7.1485  -7.0950  -7.0930  -7.0727  -7.0081  -6.9950
    -6.5336  -6.2883  -6.2868  -6.2497   0.5993   0.6486   0.6499   0.9438

          k = 0.0000 0.2500 0.3750 (  6826 PWs)   bands (ev):

   -23.5397 -23.5275 -23.5212 -23.5157 -10.7895 -10.7850 -10.7729 -10.7547
    -7.2211  -7.1759  -7.1558  -7.0966  -7.0605  -7.0351  -7.0028  -6.9992
    -6.4531  -6.3324  -6.2732  -6.2505   0.6557   0.6968   0.7525   0.9247

          k = 0.0000 0.2500-0.5000 (  6838 PWs)   bands (ev):

   -23.5332 -23.5332 -23.5212 -23.5212 -10.7882 -10.7882 -10.7653 -10.7653
    -7.2080  -7.2080  -7.1324  -7.1324  -7.0366  -7.0366  -7.0184  -7.0184
    -6.3899  -6.3899  -6.2675  -6.2675   0.7022   0.7022   0.8634   0.8637

          k = 0.0000 0.3750 0.3750 (  6838 PWs)   bands (ev):

   -23.5366 -23.5267 -23.5252 -23.5190 -10.7877 -10.7795 -10.7774 -10.7639
    -7.2194  -7.1870  -7.1761  -7.1196  -7.0476  -7.0337  -7.0034  -6.9956
    -6.4147  -6.3150  -6.3113  -6.2731   0.7114   0.7801   0.7850   0.9024

          k = 0.0000 0.3750-0.5000 (  6838 PWs)   bands (ev):

   -23.5298 -23.5298 -23.5238 -23.5238 -10.7849 -10.7849 -10.7699 -10.7699
    -7.2109  -7.2109  -7.1600  -7.1600  -7.0254  -7.0254  -7.0131  -7.0131
    -6.3586  -6.3586  -6.2940  -6.2940   0.7704   0.7705   0.8804   0.8841

          k = 0.0000-0.5000-0.5000 (  6872 PWs)   bands (ev):

   -23.5298 -23.5298 -23.5298 -23.5298 -10.7805 -10.7805 -10.7805 -10.7805
    -7.2072  -7.2072  -7.2072  -7.2072  -7.0305  -7.0305  -7.0305  -7.0305
    -6.3330  -6.3330  -6.3330  -6.3330   0.8403   0.8403   0.8404   0.8410

          k = 0.1250 0.1250 0.1250 (  6847 PWs)   bands (ev):

   -23.5506 -23.5217 -23.5217 -23.5214 -10.7891 -10.7891 -10.7887 -10.7424
    -7.2060  -7.1707  -7.1707  -7.0817  -7.0817  -7.0676  -6.9787  -6.9787
    -6.6360  -6.2633  -6.2618  -6.2618   0.5376   0.5432   0.5432   0.9718

          k = 0.1250 0.1250 0.2500 (  6838 PWs)   bands (ev):

   -23.5476 -23.5237 -23.5216 -23.5179 -10.7896 -10.7886 -10.7822 -10.7458
    -7.2157  -7.1706  -7.1379  -7.0990  -7.0854  -7.0654  -6.9998  -6.9856
    -6.5658  -6.2877  -6.2622  -6.2520   0.5729   0.5968   0.6300   0.9606

          k = 0.1250 0.1250 0.3750 (  6817 PWs)   bands (ev):

   -23.5404 -23.5246 -23.5187 -23.5170 -10.7888 -10.7880 -10.7704 -10.7514
    -7.2143  -7.1847  -7.1193  -7.1001  -7.0759  -7.0436  -7.0140  -6.9853
    -6.4737  -6.3295  -6.2529  -6.2456   0.6356   0.6575   0.7391   0.9257

          k = 0.1250 0.1250-0.5000 (  6838 PWs)   bands (ev):

   -23.5342 -23.5342 -23.5205 -23.5205 -10.7909 -10.7909 -10.7619 -10.7619
    -7.2162  -7.2162  -7.1167  -7.1167  -7.0577  -7.0577  -7.0133  -7.0133
    -6.3967  -6.3967  -6.2572  -6.2572   0.6696   0.6697   0.8490   0.8491

          k = 0.1250 0.2500 0.2500 (  6839 PWs)   bands (ev):

   -23.5462 -23.5246 -23.5220 -23.5179 -10.7893 -10.7841 -10.7833 -10.7515
    -7.2271  -7.1653  -7.1430  -7.1174  -7.0777  -7.0594  -6.9957  -6.9879
    -6.5276  -6.2873  -6.2798  -6.2552   0.6182   0.6676   0.6741   0.9385

          k = 0.1250 0.2500 0.3750 (  6835 PWs)   bands (ev):

   -23.5407 -23.5269 -23.5222 -23.5179 -10.7892 -10.7863 -10.7758 -10.7563
    -7.2253  -7.1859  -7.1505  -7.1123  -7.0551  -7.0356  -7.0062  -7.0023
    -6.4552  -6.3289  -6.2783  -6.2594   0.6705   0.7097   0.7607   0.9217

          k = 0.1250 0.2500-0.5000 (  6838 PWs)   bands (ev):

   -23.5337 -23.5337 -23.5218 -23.5218 -10.7881 -10.7881 -10.7665 -10.7665
    -7.2124  -7.2124  -7.1269  -7.1269  -7.0386  -7.0386  -7.0138  -7.0138
    -6.3847  -6.3847  -6.2741  -6.2741   0.7163   0.7163   0.8668   0.8681

          k = 0.1250 0.3750 0.3750 (  6848 PWs)   bands (ev):

   -23.5379 -23.5262 -23.5248 -23.5216 -10.7881 -10.7813 -10.7797 -10.7652
    -7.2258  -7.1901  -7.1780  -7.1315  -7.0518  -7.0343  -7.0056  -6.9999
    -6.4156  -6.3211  -6.3143  -6.2838   0.7232   0.7857   0.7977   0.9164

          k = 0.1250 0.3750-0.5000 (  6824 PWs)   bands (ev):

   -23.5298 -23.5298 -23.5202 -23.5202 -10.7825 -10.7825 -10.7709 -10.7709
    -7.2024  -7.2024  -7.1538  -7.1538  -7.0138  -7.0138  -7.0044  -7.0044
    -6.3582  -6.3582  -6.2923  -6.2923   0.7839   0.7841   0.8869   0.8916

          k = 0.1250-0.5000-0.5000 (  6848 PWs)   bands (ev):

   -23.5267 -23.5267 -23.5267 -23.5267 -10.7788 -10.7788 -10.7788 -10.7788
    -7.1940  -7.1940  -7.1940  -7.1940  -7.0131  -7.0131  -7.0131  -7.0131
    -6.3334  -6.3334  -6.3334  -6.3334   0.8416   0.8417   0.8418   0.8419

          k = 0.2500 0.2500 0.2500 (  6809 PWs)   bands (ev):

   -23.5391 -23.5198 -23.5182 -23.5182 -10.7832 -10.7832 -10.7819 -10.7543
    -7.2264  -7.1460  -7.1460  -7.1291  -7.0491  -7.0491  -6.9841  -6.9841
    -6.4824  -6.2758  -6.2758  -6.2628   0.6844   0.7225   0.7226   0.9471

          k = 0.2500 0.2500 0.3750 (  6844 PWs)   bands (ev):

   -23.5380 -23.5286 -23.5236 -23.5219 -10.7882 -10.7861 -10.7792 -10.7618
    -7.2367  -7.1907  -7.1459  -7.1331  -7.0553  -7.0318  -7.0003  -6.9878
    -6.4386  -6.3314  -6.2906  -6.2819   0.7068   0.7540   0.7903   0.9027

          k = 0.2500 0.2500-0.5000 (  6834 PWs)   bands (ev):

   -23.5321 -23.5321 -23.5218 -23.5218 -10.7864 -10.7864 -10.7701 -10.7701
    -7.2132  -7.2132  -7.1357  -7.1357  -7.0328  -7.0328  -6.9912  -6.9912
    -6.3746  -6.3746  -6.2868  -6.2868   0.7534   0.7534   0.8789   0.8958

          k = 0.2500 0.3750 0.3750 (  6855 PWs)   bands (ev):

   -23.5366 -23.5280 -23.5270 -23.5239 -10.7872 -10.7835 -10.7814 -10.7688
    -7.2316  -7.1858  -7.1748  -7.1502  -7.0370  -7.0249  -6.9956  -6.9914
    -6.4134  -6.3327  -6.3252  -6.3067   0.7505   0.8074   0.8208   0.8821

          k = 0.2500 0.3750-0.5000 (  6852 PWs)   bands (ev):

   -23.5317 -23.5317 -23.5244 -23.5244 -10.7855 -10.7855 -10.7752 -10.7752
    -7.2111  -7.2111  -7.1584  -7.1584  -7.0191  -7.0191  -6.9955  -6.9955
    -6.3683  -6.3683  -6.3163  -6.3163   0.7945   0.7950   0.8698   0.8733

          k = 0.2500-0.5000-0.5000 (  6860 PWs)   bands (ev):

   -23.5279 -23.5279 -23.5279 -23.5279 -10.7816 -10.7816 -10.7816 -10.7816
    -7.1920  -7.1920  -7.1920  -7.1920  -7.0061  -7.0061  -7.0061  -7.0061
    -6.3478  -6.3478  -6.3478  -6.3478   0.8365   0.8367   0.8371   0.8376

          k = 0.3750 0.3750 0.3750 (  6839 PWs)   bands (ev):

   -23.5343 -23.5288 -23.5230 -23.5230 -10.7828 -10.7814 -10.7814 -10.7730
    -7.2167  -7.1802  -7.1637  -7.1637  -7.0113  -7.0113  -6.9772  -6.9772
    -6.3993  -6.3387  -6.3301  -6.3301   0.7969   0.8438   0.8443   0.8612

          k = 0.3750 0.3750-0.5000 (  6854 PWs)   bands (ev):

   -23.5302 -23.5302 -23.5264 -23.5264 -10.7842 -10.7842 -10.7785 -10.7785
    -7.2002  -7.2002  -7.1733  -7.1733  -7.0058  -7.0058  -6.9847  -6.9847
    -6.3725  -6.3725  -6.3450  -6.3450   0.8172   0.8174   0.8569   0.8576

          k = 0.3750-0.5000-0.5000 (  6844 PWs)   bands (ev):

   -23.5272 -23.5272 -23.5272 -23.5272 -10.7811 -10.7811 -10.7811 -10.7811
    -7.1855  -7.1855  -7.1855  -7.1855  -6.9838  -6.9838  -6.9838  -6.9838
    -6.3603  -6.3603  -6.3603  -6.3603   0.8389   0.8389   0.8391   0.8394

          k =-0.5000-0.5000-0.5000 (  6776 PWs)   bands (ev):

   -23.5178 -23.5178 -23.5178 -23.5178 -10.7764 -10.7764 -10.7764 -10.7764
    -7.1610  -7.1610  -7.1610  -7.1610  -6.9519  -6.9519  -6.9519  -6.9519
    -6.3425  -6.3425  -6.3425  -6.3425   0.8650   0.8650   0.8651   0.8653

          k = 0.0000 0.2500 0.1250 (  6837 PWs)   bands (ev):

   -23.5485 -23.5232 -23.5194 -23.5178 -10.7907 -10.7887 -10.7819 -10.7440
    -7.1997  -7.1917  -7.1363  -7.0925  -7.0886  -7.0730  -7.0067  -6.9816
    -6.5815  -6.2860  -6.2540  -6.2477   0.5550   0.5823   0.6166   0.9562

          k = 0.0000 0.3750 0.1250 (  6815 PWs)   bands (ev):

   -23.5401 -23.5246 -23.5181 -23.5174 -10.7909 -10.7872 -10.7697 -10.7485
    -7.2030  -7.1938  -7.1119  -7.0908  -7.0893  -7.0489  -7.0160  -6.9803
    -6.4802  -6.3308  -6.2470  -6.2441   0.6169   0.6393   0.7354   0.9298

          k = 0.0000-0.5000 0.1250 (  6842 PWs)   bands (ev):

   -23.5371 -23.5371 -23.5192 -23.5192 -10.7908 -10.7908 -10.7618 -10.7618
    -7.2101  -7.2101  -7.1167  -7.1167  -7.0723  -7.0723  -7.0128  -7.0128
    -6.4048  -6.4048  -6.2515  -6.2515   0.6485   0.6488   0.8408   0.8420

          k = 0.0000 0.3750 0.2500 (  6826 PWs)   bands (ev):

   -23.5391 -23.5262 -23.5205 -23.5181 -10.7890 -10.7837 -10.7734 -10.7559
    -7.2136  -7.1961  -7.1256  -7.0942  -7.0761  -7.0568  -6.9989  -6.9845
    -6.4556  -6.3276  -6.2728  -6.2551   0.6619   0.6919   0.7567   0.9249

          k = 0.0000-0.5000 0.2500 (  6838 PWs)   bands (ev):

   -23.5336 -23.5336 -23.5208 -23.5208 -10.7881 -10.7881 -10.7654 -10.7654
    -7.2155  -7.2155  -7.1166  -7.1166  -7.0720  -7.0720  -6.9970  -6.9970
    -6.3846  -6.3846  -6.2663  -6.2663   0.7029   0.7029   0.8595   0.8599

          k = 0.0000-0.5000 0.3750 (  6838 PWs)   bands (ev):

   -23.5300 -23.5300 -23.5235 -23.5235 -10.7835 -10.7835 -10.7713 -10.7713
    -7.2133  -7.2133  -7.1562  -7.1562  -7.0411  -7.0411  -6.9957  -6.9957
    -6.3600  -6.3600  -6.2958  -6.2958   0.7751   0.7753   0.8832   0.8902

          k =-0.1250 0.3750 0.2500 (  6835 PWs)   bands (ev):

   -23.5403 -23.5280 -23.5214 -23.5178 -10.7888 -10.7851 -10.7761 -10.7575
    -7.2238  -7.1908  -7.1408  -7.1132  -7.0674  -7.0452  -7.0072  -6.9863
    -6.4549  -6.3288  -6.2758  -6.2609   0.6737   0.7156   0.7671   0.9157

          k =-0.1250-0.5000 0.2500 (  6838 PWs)   bands (ev):

   -23.5352 -23.5352 -23.5203 -23.5203 -10.7884 -10.7884 -10.7663 -10.7663
    -7.2182  -7.2182  -7.1214  -7.1214  -7.0577  -7.0577  -6.9948  -6.9948
    -6.3872  -6.3872  -6.2708  -6.2708   0.7202   0.7202   0.8627   0.8655

          k =-0.1250-0.5000 0.3750 (  6824 PWs)   bands (ev):

   -23.5304 -23.5304 -23.5196 -23.5196 -10.7821 -10.7821 -10.7713 -10.7713
    -7.2040  -7.2040  -7.1478  -7.1478  -7.0326  -7.0326  -6.9892  -6.9892
    -6.3590  -6.3590  -6.2927  -6.2927   0.7859   0.7861   0.8839   0.8880

          k =-0.2500-0.5000 0.3750 (  6852 PWs)   bands (ev):

   -23.5311 -23.5311 -23.5250 -23.5250 -10.7853 -10.7853 -10.7756 -10.7756
    -7.2091  -7.2091  -7.1638  -7.1638  -7.0217  -7.0217  -6.9892  -6.9892
    -6.3673  -6.3673  -6.3175  -6.3175   0.7937   0.7938   0.8722   0.8849

     the Fermi energy is    -5.1348 ev

!    total energy              =    -224.26753825 Ry
     Harris-Foulkes estimate   =    -224.26753824 Ry
     estimated scf accuracy    <          1.2E-09 Ry

     total all-electron energy =      -224.267538 Ry

     The total energy is the sum of the following terms:

     one-electron contribution =    -128.58499952 Ry
     hartree contribution      =      74.46787446 Ry
     xc contribution           =     -38.87056866 Ry
     ewald contribution        =     -62.58693051 Ry
     one-center paw contrib.   =     -68.69291401 Ry
     smearing contrib. (-TS)   =       0.00000000 Ry

     convergence has been achieved in   6 iterations

     Forces acting on atoms (cartesian axes, Ry/au):

     atom    1 type  1   force =    -0.17487337   -0.17487337   -0.17487337
     atom    2 type  1   force =     0.17487337    0.17487337   -0.17487337
     atom    3 type  1   force =     0.17487337   -0.17487337    0.17487337
     atom    4 type  1   force =    -0.17487337    0.17487337    0.17487337
     atom    5 type  1   force =     0.17487337    0.17487337    0.17487337
     atom    6 type  1   force =    -0.17487337   -0.17487337    0.17487337
     atom    7 type  1   force =    -0.17487337    0.17487337   -0.17487337
     atom    8 type  1   force =     0.17487337   -0.17487337   -0.17487337

     Total force =     0.856701     Total SCF correction =     0.000021

     number of scf cycles    =   2
     number of bfgs steps    =   1

     energy   old            =    -224.3437719151 Ry
     energy   new            =    -224.2675382459 Ry

     CASE: energy  _new > energy  _old

     new trust radius        =       0.0115876243 bohr
     new conv_thr            =       0.0000000100 Ry


ATOMIC_POSITIONS (crystal)
N        0.552461917   0.552461917   0.552461917
N        0.947538083   0.447538083   0.052461917
N        0.447538083   0.052461917   0.947538083
N        0.052461917   0.947538083   0.447538083
N        0.447538083   0.447538083   0.447538083
N        0.052461917   0.552461917   0.947538083
N        0.552461917   0.947538083   0.052461917
N        0.947538083   0.052461917   0.552461917



     Writing output data file relax.save/
     NEW-OLD atomic charge density approx. for the potential

     Check: negative/imaginary core charge=   -0.000001    0.000000

     total cpu time spent up to now is       43.3 secs

     Self-consistent Calculation

     iteration #  1     ecut=    40.00 Ry     beta= 0.70
     Davidson diagonalization with overlap
     ethr =  1.00E-06,  avg # of iterations =  6.1

     total cpu time spent up to now is       48.1 secs

     total energy              =    -224.33908756 Ry
     Harris-Foulkes estimate   =    -224.40778434 Ry
     estimated scf accuracy    <       0.02559143 Ry

     iteration #  2     ecut=    40.00 Ry     beta= 0.70
     Davidson diagonalization with overlap
     ethr =  6.40E-05,  avg # of iterations =  2.1

     total cpu time spent up to now is       50.5 secs

     total energy              =    -224.34579815 Ry
     Harris-Foulkes estimate   =    -224.34745417 Ry
     estimated scf accuracy    <       0.00302875 Ry

     iteration #  3     ecut=    40.00 Ry     beta= 0.70
     Davidson diagonalization with overlap
     ethr =  7.57E-06,  avg # of iterations =  2.0

     total cpu time spent up to now is       52.8 secs

     total energy              =    -224.34642754 Ry
     Harris-Foulkes estimate   =    -224.34641042 Ry
     estimated scf accuracy    <       0.00004830 Ry

     iteration #  4     ecut=    40.00 Ry     beta= 0.70
     Davidson diagonalization with overlap
     ethr =  1.21E-07,  avg # of iterations =  2.0

     total cpu time spent up to now is       54.8 secs

     total energy              =    -224.34643303 Ry
     Harris-Foulkes estimate   =    -224.34643295 Ry
     estimated scf accuracy    <       0.00000092 Ry

     iteration #  5     ecut=    40.00 Ry     beta= 0.70
     Davidson diagonalization with overlap
     ethr =  2.30E-09,  avg # of iterations =  4.1

     total cpu time spent up to now is       58.4 secs

     total energy              =    -224.34643374 Ry
     Harris-Foulkes estimate   =    -224.34643375 Ry
     estimated scf accuracy    <       0.00000002 Ry

     iteration #  6     ecut=    40.00 Ry     beta= 0.70
     Davidson diagonalization with overlap
     c_bands:  1 eigenvalues not converged
     ethr =  5.77E-11,  avg # of iterations =  4.2

     total cpu time spent up to now is       61.6 secs

     End of self-consistent calculation

          k = 0.0000 0.0000 0.0000 (  6859 PWs)   bands (ev):

   -24.4666 -24.4372 -24.4372 -24.4372 -10.3684 -10.3684 -10.3684 -10.3080
    -7.6336  -7.6336  -7.6336  -7.5205  -7.5205  -7.4353  -7.4353  -7.4353
    -6.9116  -6.4123  -6.4123  -6.4123   1.0079   1.0079   1.0080   1.5792

          k = 0.0000 0.0000 0.1250 (  6867 PWs)   bands (ev):

   -24.4639 -24.4405 -24.4384 -24.4320 -10.3691 -10.3671 -10.3661 -10.3175
    -7.6377  -7.6267  -7.6254  -7.5481  -7.5432  -7.4676  -7.4500  -7.4487
    -6.8755  -6.4297  -6.4156  -6.4015   1.0180   1.0248   1.0381   1.5758

          k = 0.0000 0.0000 0.2500 (  6836 PWs)   bands (ev):

   -24.4540 -24.4350 -24.4307 -24.4253 -10.3676 -10.3670 -10.3580 -10.3165
    -7.6381  -7.6106  -7.6054  -7.5473  -7.5304  -7.5075  -7.4647  -7.4549
    -6.7870  -6.4502  -6.3967  -6.3839   1.0853   1.0858   1.1462   1.5675

          k = 0.0000 0.0000 0.3750 (  6860 PWs)   bands (ev):

   -24.4519 -24.4365 -24.4294 -24.4287 -10.3729 -10.3717 -10.3502 -10.3286
    -7.6600  -7.6211  -7.5950  -7.5654  -7.5488  -7.5184  -7.5147  -7.4752
    -6.6815  -6.5118  -6.3935  -6.3934   1.1292   1.1453   1.2779   1.5256

          k = 0.0000 0.0000-0.5000 (  6848 PWs)   bands (ev):

   -24.4429 -24.4429 -24.4307 -24.4307 -10.3700 -10.3700 -10.3375 -10.3375
    -7.6357  -7.6357  -7.5855  -7.5855  -7.5200  -7.5200  -7.4996  -7.4996
    -6.5858  -6.5858  -6.3943  -6.3943   1.1709   1.1710   1.4331   1.4338

          k = 0.0000 0.1250 0.1250 (  6855 PWs)   bands (ev):

   -24.4558 -24.4340 -24.4315 -24.4312 -10.3699 -10.3677 -10.3654 -10.3164
    -7.6384  -7.6330  -7.6168  -7.5463  -7.5417  -7.4935  -7.4500  -7.4387
    -6.8378  -6.4161  -6.4109  -6.4009   1.0413   1.0589   1.0657   1.5758

          k = 0.0000 0.1250 0.2500 (  6837 PWs)   bands (ev):

   -24.4547 -24.4296 -24.4295 -24.4256 -10.3668 -10.3658 -10.3591 -10.3217
    -7.6418  -7.6085  -7.6065  -7.5540  -7.5299  -7.5263  -7.4623  -7.4590
    -6.7683  -6.4382  -6.4011  -6.3886   1.0930   1.1223   1.1732   1.5566

          k = 0.0000 0.1250 0.3750 (  6815 PWs)   bands (ev):

   -24.4472 -24.4334 -24.4239 -24.4229 -10.3673 -10.3650 -10.3454 -10.3238
    -7.6405  -7.5995  -7.5834  -7.5554  -7.5255  -7.5018  -7.4762  -7.4632
    -6.6667  -6.4995  -6.3883  -6.3836   1.1657   1.1892   1.2933   1.5461

          k = 0.0000 0.1250-0.5000 (  6842 PWs)   bands (ev):

   -24.4437 -24.4437 -24.4274 -24.4274 -10.3687 -10.3687 -10.3377 -10.3377
    -7.6431  -7.6431  -7.5679  -7.5679  -7.5131  -7.5131  -7.4933  -7.4933
    -6.5821  -6.5821  -6.3954  -6.3954   1.1996   1.1996   1.4411   1.4412

          k = 0.0000 0.2500 0.2500 (  6849 PWs)   bands (ev):

   -24.4504 -24.4317 -24.4294 -24.4272 -10.3707 -10.3618 -10.3610 -10.3281
    -7.6519  -7.6298  -7.5905  -7.5498  -7.5428  -7.5344  -7.4749  -7.4648
    -6.7165  -6.4374  -6.4345  -6.3944   1.1487   1.2055   1.2065   1.5483

          k = 0.0000 0.2500 0.3750 (  6826 PWs)   bands (ev):

   -24.4462 -24.4333 -24.4283 -24.4216 -10.3676 -10.3621 -10.3491 -10.3318
    -7.6519  -7.6053  -7.5985  -7.5473  -7.5200  -7.4987  -7.4679  -7.4670
    -6.6354  -6.4909  -6.4220  -6.3937   1.2099   1.2570   1.3270   1.5293

          k = 0.0000 0.2500-0.5000 (  6838 PWs)   bands (ev):

   -24.4388 -24.4388 -24.4291 -24.4291 -10.3666 -10.3666 -10.3415 -10.3415
    -7.6387  -7.6387  -7.5795  -7.5795  -7.5006  -7.5006  -7.4839  -7.4839
    -6.5584  -6.5584  -6.4153  -6.4153   1.2607   1.2607   1.4575   1.4579

          k = 0.0000 0.3750 0.3750 (  6838 PWs)   bands (ev):

   -24.4426 -24.4333 -24.4314 -24.4259 -10.3662 -10.3568 -10.3557 -10.3405
    -7.6510  -7.6284  -7.6112  -7.5660  -7.5096  -7.4986  -7.4693  -7.4603
    -6.5852  -6.4716  -6.4677  -6.4213   1.2766   1.3587   1.3593   1.5058

          k = 0.0000 0.3750-0.5000 (  6838 PWs)   bands (ev):

   -24.4353 -24.4353 -24.4304 -24.4304 -10.3635 -10.3635 -10.3471 -10.3471
    -7.6413  -7.6413  -7.6033  -7.6033  -7.4903  -7.4903  -7.4781  -7.4781
    -6.5214  -6.5214  -6.4462  -6.4462   1.3388   1.3389   1.4745   1.4785

          k = 0.0000-0.5000-0.5000 (  6872 PWs)   bands (ev):

   -24.4361 -24.4361 -24.4361 -24.4361 -10.3597 -10.3597 -10.3597 -10.3597
    -7.6448  -7.6448  -7.6448  -7.6448  -7.4964  -7.4964  -7.4964  -7.4964
    -6.4891  -6.4891  -6.4891  -6.4891   1.4222   1.4222   1.4222   1.4226

          k = 0.1250 0.1250 0.1250 (  6847 PWs)   bands (ev):

   -24.4537 -24.4326 -24.4326 -24.4301 -10.3661 -10.3661 -10.3651 -10.3194
    -7.6450  -7.6166  -7.6166  -7.5414  -7.5414  -7.5123  -7.4464  -7.4464
    -6.8130  -6.4113  -6.4113  -6.4073   1.0738   1.0865   1.0865   1.5805

          k = 0.1250 0.1250 0.2500 (  6838 PWs)   bands (ev):

   -24.4534 -24.4327 -24.4312 -24.4243 -10.3672 -10.3652 -10.3584 -10.3231
    -7.6496  -7.6108  -7.5862  -7.5456  -7.5387  -7.5252  -7.4659  -7.4527
    -6.7502  -6.4410  -6.4085  -6.3960   1.1164   1.1464   1.1832   1.5688

          k = 0.1250 0.1250 0.3750 (  6817 PWs)   bands (ev):

   -24.4471 -24.4307 -24.4257 -24.4244 -10.3659 -10.3651 -10.3456 -10.3280
    -7.6466  -7.6155  -7.5665  -7.5517  -7.5307  -7.5053  -7.4775  -7.4515
    -6.6602  -6.4911  -6.3976  -6.3919   1.1854   1.2114   1.3129   1.5272

          k = 0.1250 0.1250-0.5000 (  6838 PWs)   bands (ev):

   -24.4410 -24.4410 -24.4277 -24.4277 -10.3691 -10.3691 -10.3379 -10.3379
    -7.6439  -7.6439  -7.5682  -7.5682  -7.5173  -7.5173  -7.4781  -7.4781
    -6.5726  -6.5726  -6.4022  -6.4022   1.2241   1.2241   1.4387   1.4389

          k = 0.1250 0.2500 0.2500 (  6839 PWs)   bands (ev):

   -24.4513 -24.4337 -24.4299 -24.4257 -10.3671 -10.3606 -10.3602 -10.3284
    -7.6572  -7.6068  -7.5858  -7.5650  -7.5341  -7.5202  -7.4624  -7.4545
    -6.7073  -6.4409  -6.4300  -6.4031   1.1667   1.2255   1.2331   1.5412

          k = 0.1250 0.2500 0.3750 (  6835 PWs)   bands (ev):

   -24.4472 -24.4329 -24.4303 -24.4246 -10.3680 -10.3635 -10.3523 -10.3328
    -7.6550  -7.6196  -7.5932  -7.5645  -7.5126  -7.4971  -7.4747  -7.4668
    -6.6332  -6.4862  -6.4283  -6.4070   1.2251   1.2728   1.3387   1.5231

          k = 0.1250 0.2500-0.5000 (  6838 PWs)   bands (ev):

   -24.4405 -24.4405 -24.4294 -24.4294 -10.3661 -10.3661 -10.3425 -10.3425
    -7.6425  -7.6425  -7.5737  -7.5737  -7.4998  -7.4998  -7.4803  -7.4803
    -6.5548  -6.5548  -6.4230  -6.4230   1.2770   1.2771   1.4614   1.4630

          k = 0.1250 0.3750 0.3750 (  6848 PWs)   bands (ev):

   -24.4446 -24.4330 -24.4311 -24.4288 -10.3673 -10.3589 -10.3581 -10.3421
    -7.6578  -7.6303  -7.6161  -7.5807  -7.5134  -7.4984  -7.4743  -7.4660
    -6.5864  -6.4744  -6.4689  -6.4312   1.2902   1.3629   1.3790   1.5208

          k = 0.1250 0.3750-0.5000 (  6824 PWs)   bands (ev):

   -24.4356 -24.4356 -24.4265 -24.4265 -10.3600 -10.3600 -10.3485 -10.3485
    -7.6348  -7.6348  -7.5990  -7.5990  -7.4779  -7.4779  -7.4717  -7.4717
    -6.5201  -6.5201  -6.4439  -6.4439   1.3559   1.3561   1.4828   1.4893

          k = 0.1250-0.5000-0.5000 (  6848 PWs)   bands (ev):

   -24.4322 -24.4322 -24.4322 -24.4322 -10.3578 -10.3578 -10.3578 -10.3578
    -7.6329  -7.6329  -7.6329  -7.6329  -7.4809  -7.4809  -7.4809  -7.4809
    -6.4859  -6.4859  -6.4859  -6.4859   1.4261   1.4261   1.4264   1.4267

          k = 0.2500 0.2500 0.2500 (  6809 PWs)   bands (ev):

   -24.4441 -24.4289 -24.4253 -24.4253 -10.3601 -10.3601 -10.3586 -10.3298
    -7.6547  -7.5902  -7.5902  -7.5662  -7.5074  -7.5074  -7.4523  -7.4523
    -6.6591  -6.4250  -6.4250  -6.4231   1.2365   1.2881   1.2881   1.5450

          k = 0.2500 0.2500 0.3750 (  6844 PWs)   bands (ev):

   -24.4445 -24.4360 -24.4325 -24.4294 -10.3659 -10.3648 -10.3557 -10.3379
    -7.6643  -7.6277  -7.5915  -7.5811  -7.5145  -7.4929  -7.4701  -7.4567
    -6.6099  -6.4884  -6.4412  -6.4341   1.2675   1.3248   1.3726   1.4997

          k = 0.2500 0.2500-0.5000 (  6834 PWs)   bands (ev):

   -24.4392 -24.4392 -24.4298 -24.4298 -10.3636 -10.3636 -10.3467 -10.3467
    -7.6425  -7.6425  -7.5846  -7.5846  -7.4935  -7.4935  -7.4609  -7.4609
    -6.5418  -6.5418  -6.4370  -6.4370   1.3220   1.3220   1.4750   1.4954

          k = 0.2500 0.3750 0.3750 (  6855 PWs)   bands (ev):

   -24.4436 -24.4352 -24.4342 -24.4313 -10.3663 -10.3612 -10.3601 -10.3453
    -7.6628  -7.6276  -7.6178  -7.5989  -7.5012  -7.4906  -7.4663  -7.4618
    -6.5764  -6.4836  -6.4778  -6.4551   1.3217   1.3902   1.4082   1.4784

          k = 0.2500 0.3750-0.5000 (  6852 PWs)   bands (ev):

   -24.4385 -24.4385 -24.4321 -24.4321 -10.3640 -10.3640 -10.3526 -10.3526
    -7.6461  -7.6461  -7.6066  -7.6066  -7.4859  -7.4859  -7.4656  -7.4656
    -6.5262  -6.5262  -6.4668  -6.4668   1.3722   1.3726   1.4642   1.4683

          k = 0.2500-0.5000-0.5000 (  6860 PWs)   bands (ev):

   -24.4348 -24.4348 -24.4348 -24.4348 -10.3604 -10.3604 -10.3604 -10.3604
    -7.6352  -7.6352  -7.6352  -7.6352  -7.4760  -7.4760  -7.4760  -7.4760
    -6.4980  -6.4980  -6.4980  -6.4980   1.4240   1.4242   1.4246   1.4250

          k = 0.3750 0.3750 0.3750 (  6839 PWs)   bands (ev):

   -24.4406 -24.4358 -24.4300 -24.4300 -10.3613 -10.3592 -10.3592 -10.3497
    -7.6515  -7.6235  -7.6118  -7.6118  -7.4800  -7.4800  -7.4512  -7.4512
    -6.5562  -6.4885  -6.4782  -6.4782   1.3749   1.4341   1.4342   1.4504

          k = 0.3750 0.3750-0.5000 (  6854 PWs)   bands (ev):

   -24.4373 -24.4373 -24.4329 -24.4329 -10.3634 -10.3634 -10.3562 -10.3562
    -7.6427  -7.6427  -7.6222  -7.6222  -7.4772  -7.4772  -7.4584  -7.4584
    -6.5222  -6.5222  -6.4891  -6.4891   1.4018   1.4020   1.4491   1.4499

          k = 0.3750-0.5000-0.5000 (  6844 PWs)   bands (ev):

   -24.4343 -24.4343 -24.4343 -24.4343 -10.3591 -10.3591 -10.3591 -10.3591
    -7.6328  -7.6328  -7.6328  -7.6328  -7.4578  -7.4578  -7.4578  -7.4578
    -6.5067  -6.5067  -6.5067  -6.5067   1.4276   1.4276   1.4278   1.4281

          k =-0.5000-0.5000-0.5000 (  6776 PWs)   bands (ev):

   -24.4237 -24.4237 -24.4237 -24.4237 -10.3536 -10.3536 -10.3536 -10.3536
    -7.6108  -7.6108  -7.6108  -7.6108  -7.4257  -7.4257  -7.4257  -7.4257
    -6.4871  -6.4871  -6.4871  -6.4871   1.4525   1.4525   1.4527   1.4529

          k = 0.0000 0.2500 0.1250 (  6837 PWs)   bands (ev):

   -24.4537 -24.4322 -24.4278 -24.4256 -10.3671 -10.3660 -10.3584 -10.3218
    -7.6356  -7.6298  -7.5860  -7.5498  -7.5339  -7.5310  -7.4725  -7.4483
    -6.7676  -6.4423  -6.4001  -6.3873   1.0981   1.1283   1.1668   1.5636

          k = 0.0000 0.3750 0.1250 (  6815 PWs)   bands (ev):

   -24.4461 -24.4309 -24.4255 -24.4249 -10.3669 -10.3653 -10.3455 -10.3241
    -7.6406  -7.6216  -7.5604  -7.5462  -7.5395  -7.5087  -7.4793  -7.4462
    -6.6670  -6.4956  -6.3918  -6.3867   1.1658   1.1896   1.3059   1.5339

          k = 0.0000-0.5000 0.1250 (  6842 PWs)   bands (ev):

   -24.4441 -24.4441 -24.4270 -24.4270 -10.3684 -10.3684 -10.3380 -10.3380
    -7.6377  -7.6377  -7.5687  -7.5687  -7.5319  -7.5319  -7.4774  -7.4774
    -6.5835  -6.5835  -6.3956  -6.3956   1.2025   1.2027   1.4289   1.4301

          k = 0.0000 0.3750 0.2500 (  6826 PWs)   bands (ev):

   -24.4448 -24.4326 -24.4265 -24.4256 -10.3668 -10.3614 -10.3498 -10.3324
    -7.6405  -7.6345  -7.5691  -7.5469  -7.5314  -7.5166  -7.4660  -7.4525
    -6.6339  -6.4885  -6.4185  -6.4008   1.2176   1.2546   1.3310   1.5266

          k = 0.0000-0.5000 0.2500 (  6838 PWs)   bands (ev):

   -24.4397 -24.4397 -24.4281 -24.4281 -10.3664 -10.3664 -10.3416 -10.3416
    -7.6441  -7.6441  -7.5656  -7.5656  -7.5303  -7.5303  -7.4642  -7.4642
    -6.5574  -6.5574  -6.4144  -6.4144   1.2642   1.2642   1.4496   1.4502

          k = 0.0000-0.5000 0.3750 (  6838 PWs)   bands (ev):

   -24.4350 -24.4350 -24.4306 -24.4306 -10.3628 -10.3628 -10.3480 -10.3480
    -7.6480  -7.6480  -7.5983  -7.5983  -7.5041  -7.5041  -7.4614  -7.4614
    -6.5216  -6.5216  -6.4473  -6.4473   1.3474   1.3479   1.4699   1.4725

          k =-0.1250 0.3750 0.2500 (  6835 PWs)   bands (ev):

   -24.4461 -24.4358 -24.4284 -24.4248 -10.3666 -10.3632 -10.3529 -10.3338
    -7.6521  -7.6281  -7.5848  -7.5635  -7.5240  -7.5052  -7.4739  -7.4530
    -6.6320  -6.4900  -6.4246  -6.4073   1.2310   1.2794   1.3434   1.5159

          k =-0.1250-0.5000 0.2500 (  6838 PWs)   bands (ev):

   -24.4422 -24.4422 -24.4277 -24.4277 -10.3662 -10.3662 -10.3426 -10.3426
    -7.6467  -7.6467  -7.5712  -7.5712  -7.5161  -7.5161  -7.4624  -7.4624
    -6.5584  -6.5584  -6.4190  -6.4190   1.2832   1.2832   1.4548   1.4580

          k =-0.1250-0.5000 0.3750 (  6824 PWs)   bands (ev):

   -24.4369 -24.4369 -24.4253 -24.4253 -10.3601 -10.3601 -10.3482 -10.3482
    -7.6380  -7.6380  -7.5917  -7.5917  -7.4971  -7.4971  -7.4560  -7.4560
    -6.5236  -6.5236  -6.4413  -6.4413   1.3620   1.3622   1.4745   1.4794

          k =-0.2500-0.5000 0.3750 (  6852 PWs)   bands (ev):

   -24.4382 -24.4382 -24.4325 -24.4325 -10.3643 -10.3643 -10.3527 -10.3527
    -7.6445  -7.6445  -7.6118  -7.6118  -7.4867  -7.4867  -7.4607  -7.4607
    -6.5257  -6.5257  -6.4675  -6.4675   1.3734   1.3734   1.4633   1.4634

     the Fermi energy is    -4.9041 ev

!    total energy              =    -224.34643375 Ry
     Harris-Foulkes estimate   =    -224.34643375 Ry
     estimated scf accuracy    <          5.2E-10 Ry

     total all-electron energy =      -224.346434 Ry

     The total energy is the sum of the following terms:

     one-electron contribution =    -136.18332361 Ry
     hartree contribution      =      78.14101704 Ry
     xc contribution           =     -39.37880755 Ry
     ewald contribution        =     -58.21645918 Ry
     one-center paw contrib.   =     -68.70886046 Ry
     smearing contrib. (-TS)   =       0.00000000 Ry

     convergence has been achieved in   6 iterations

     Forces acting on atoms (cartesian axes, Ry/au):

     atom    1 type  1   force =    -0.00612082   -0.00612082   -0.00612082
     atom    2 type  1   force =     0.00612082    0.00612082   -0.00612082
     atom    3 type  1   force =     0.00612082   -0.00612082    0.00612082
     atom    4 type  1   force =    -0.00612082    0.00612082    0.00612082
     atom    5 type  1   force =     0.00612082    0.00612082    0.00612082
     atom    6 type  1   force =    -0.00612082   -0.00612082    0.00612082
     atom    7 type  1   force =    -0.00612082    0.00612082   -0.00612082
     atom    8 type  1   force =     0.00612082   -0.00612082   -0.00612082

     Total force =     0.029986     Total SCF correction =     0.000001

     number of scf cycles    =   3
     number of bfgs steps    =   1

     energy   old            =    -224.3437719151 Ry
     energy   new            =    -224.3464337506 Ry

     CASE: energy  _new < energy  _old

     new trust radius        =       0.0015386353 bohr
     new conv_thr            =       0.0000000006 Ry


ATOMIC_POSITIONS (crystal)
N        0.552385977   0.552385977   0.552385977
N        0.947614023   0.447614023   0.052385977
N        0.447614023   0.052385977   0.947614023
N        0.052385977   0.947614023   0.447614023
N        0.447614023   0.447614023   0.447614023
N        0.052385977   0.552385977   0.947614023
N        0.552385977   0.947614023   0.052385977
N        0.947614023   0.052385977   0.552385977



     Writing output data file relax.save/
     NEW-OLD atomic charge density approx. for the potential

     Check: negative/imaginary core charge=   -0.000001    0.000000

     total cpu time spent up to now is       62.3 secs

     Self-consistent Calculation

     iteration #  1     ecut=    40.00 Ry     beta= 0.70
     Davidson diagonalization with overlap
     ethr =  1.00E-06,  avg # of iterations =  3.0

     Threshold (ethr) on eigenvalues was too large:
     Diagonalizing with lowered threshold

     Davidson diagonalization with overlap
     ethr =  5.02E-08,  avg # of iterations =  2.0

     total cpu time spent up to now is       69.3 secs

     total energy              =    -224.34649616 Ry
     Harris-Foulkes estimate   =    -224.34730235 Ry
     estimated scf accuracy    <       0.00002049 Ry

     iteration #  2     ecut=    40.00 Ry     beta= 0.70
     Davidson diagonalization with overlap
     ethr =  5.12E-08,  avg # of iterations =  2.0

     total cpu time spent up to now is       73.2 secs

     total energy              =    -224.34650127 Ry
     Harris-Foulkes estimate   =    -224.34650252 Ry
     estimated scf accuracy    <       0.00000217 Ry

     iteration #  3     ecut=    40.00 Ry     beta= 0.70
     Davidson diagonalization with overlap
     ethr =  5.44E-09,  avg # of iterations =  2.0

     total cpu time spent up to now is       76.9 secs

     total energy              =    -224.34650172 Ry
     Harris-Foulkes estimate   =    -224.34650173 Ry
     estimated scf accuracy    <       0.00000003 Ry

     iteration #  4     ecut=    40.00 Ry     beta= 0.70
     Davidson diagonalization with overlap
     ethr =  8.54E-11,  avg # of iterations =  3.0

     total cpu time spent up to now is       80.9 secs

     total energy              =    -224.34650173 Ry
     Harris-Foulkes estimate   =    -224.34650173 Ry
     estimated scf accuracy    <          2.0E-09 Ry

     iteration #  5     ecut=    40.00 Ry     beta= 0.70
     Davidson diagonalization with overlap
     ethr =  4.99E-12,  avg # of iterations =  4.3

     total cpu time spent up to now is       85.5 secs

     End of self-consistent calculation

          k = 0.0000 0.0000 0.0000 (  6859 PWs)   bands (ev):

   -24.4909 -24.4617 -24.4617 -24.4617 -10.3569 -10.3569 -10.3569 -10.2965
    -7.6463  -7.6463  -7.6463  -7.5335  -7.5335  -7.4484  -7.4484  -7.4484
    -6.9151  -6.4158  -6.4158  -6.4158   1.0226   1.0226   1.0226   1.5964

          k = 0.0000 0.0000 0.1250 (  6867 PWs)   bands (ev):

   -24.4883 -24.4651 -24.4631 -24.4566 -10.3576 -10.3557 -10.3547 -10.3061
    -7.6504  -7.6394  -7.6382  -7.5613  -7.5563  -7.4806  -7.4632  -7.4619
    -6.8795  -6.4333  -6.4191  -6.4049   1.0329   1.0396   1.0530   1.5929

          k = 0.0000 0.0000 0.2500 (  6836 PWs)   bands (ev):

   -24.4784 -24.4595 -24.4552 -24.4498 -10.3561 -10.3556 -10.3466 -10.3051
    -7.6508  -7.6233  -7.6181  -7.5605  -7.5435  -7.5203  -7.4780  -7.4681
    -6.7912  -6.4539  -6.4002  -6.3872   1.1003   1.1008   1.1613   1.5843

          k = 0.0000 0.0000 0.3750 (  6860 PWs)   bands (ev):

   -24.4765 -24.4610 -24.4539 -24.4533 -10.3615 -10.3603 -10.3387 -10.3172
    -7.6727  -7.6335  -7.6079  -7.5784  -7.5618  -7.5315  -7.5279  -7.4886
    -6.6860  -6.5157  -6.3968  -6.3968   1.1445   1.1605   1.2937   1.5426

          k = 0.0000 0.0000-0.5000 (  6848 PWs)   bands (ev):

   -24.4674 -24.4674 -24.4552 -24.4552 -10.3586 -10.3586 -10.3261 -10.3261
    -7.6481  -7.6481  -7.5984  -7.5984  -7.5332  -7.5332  -7.5129  -7.5129
    -6.5902  -6.5902  -6.3977  -6.3977   1.1862   1.1862   1.4494   1.4501

          k = 0.0000 0.1250 0.1250 (  6855 PWs)   bands (ev):

   -24.4802 -24.4586 -24.4560 -24.4557 -10.3585 -10.3563 -10.3540 -10.3050
    -7.6510  -7.6457  -7.6297  -7.5594  -7.5549  -7.5066  -7.4632  -7.4520
    -6.8418  -6.4196  -6.4143  -6.4043   1.0562   1.0738   1.0807   1.5930

          k = 0.0000 0.1250 0.2500 (  6837 PWs)   bands (ev):

   -24.4792 -24.4542 -24.4540 -24.4501 -10.3554 -10.3544 -10.3477 -10.3103
    -7.6544  -7.6212  -7.6193  -7.5671  -7.5431  -7.5392  -7.4756  -7.4722
    -6.7725  -6.4418  -6.4045  -6.3920   1.1080   1.1375   1.1885   1.5737

          k = 0.0000 0.1250 0.3750 (  6815 PWs)   bands (ev):

   -24.4717 -24.4579 -24.4484 -24.4474 -10.3559 -10.3536 -10.3339 -10.3123
    -7.6530  -7.6119  -7.5962  -7.5683  -7.5385  -7.5149  -7.4893  -7.4766
    -6.6711  -6.5034  -6.3916  -6.3871   1.1809   1.2045   1.3092   1.5628

          k = 0.0000 0.1250-0.5000 (  6842 PWs)   bands (ev):

   -24.4682 -24.4682 -24.4519 -24.4519 -10.3573 -10.3573 -10.3263 -10.3263
    -7.6556  -7.6556  -7.5808  -7.5808  -7.5263  -7.5263  -7.5066  -7.5066
    -6.5863  -6.5863  -6.3988  -6.3988   1.2149   1.2149   1.4575   1.4576

          k = 0.0000 0.2500 0.2500 (  6849 PWs)   bands (ev):

   -24.4749 -24.4562 -24.4538 -24.4517 -10.3593 -10.3504 -10.3496 -10.3167
    -7.6645  -7.6424  -7.6032  -7.5628  -7.5557  -7.5475  -7.4882  -7.4781
    -6.7207  -6.4410  -6.4380  -6.3978   1.1639   1.2209   1.2219   1.5650

          k = 0.0000 0.2500 0.3750 (  6826 PWs)   bands (ev):

   -24.4707 -24.4578 -24.4528 -24.4461 -10.3562 -10.3507 -10.3377 -10.3204
    -7.6644  -7.6177  -7.6113  -7.5602  -7.5331  -7.5119  -7.4812  -7.4803
    -6.6397  -6.4946  -6.4256  -6.3971   1.2253   1.2725   1.3429   1.5460

          k = 0.0000 0.2500-0.5000 (  6838 PWs)   bands (ev):

   -24.4633 -24.4633 -24.4535 -24.4535 -10.3553 -10.3553 -10.3301 -10.3301
    -7.6511  -7.6511  -7.5923  -7.5923  -7.5138  -7.5138  -7.4971  -7.4971
    -6.5623  -6.5623  -6.4188  -6.4188   1.2762   1.2763   1.4741   1.4745

          k = 0.0000 0.3750 0.3750 (  6838 PWs)   bands (ev):

   -24.4670 -24.4578 -24.4559 -24.4504 -10.3548 -10.3454 -10.3444 -10.3290
    -7.6635  -7.6411  -7.6237  -7.5788  -7.5228  -7.5119  -7.4826  -7.4735
    -6.5892  -6.4753  -6.4713  -6.4248   1.2923   1.3748   1.3755   1.5228

          k = 0.0000 0.3750-0.5000 (  6838 PWs)   bands (ev):

   -24.4598 -24.4598 -24.4548 -24.4548 -10.3521 -10.3521 -10.3357 -10.3357
    -7.6537  -7.6537  -7.6161  -7.6161  -7.5035  -7.5035  -7.4914  -7.4914
    -6.5253  -6.5253  -6.4498  -6.4498   1.3547   1.3547   1.4911   1.4949

          k = 0.0000-0.5000-0.5000 (  6872 PWs)   bands (ev):

   -24.4606 -24.4606 -24.4606 -24.4606 -10.3484 -10.3484 -10.3484 -10.3484
    -7.6574  -7.6574  -7.6574  -7.6574  -7.5096  -7.5096  -7.5096  -7.5096
    -6.4928  -6.4928  -6.4928  -6.4928   1.4385   1.4385   1.4385   1.4389

          k = 0.1250 0.1250 0.1250 (  6847 PWs)   bands (ev):

   -24.4781 -24.4572 -24.4572 -24.4547 -10.3547 -10.3547 -10.3537 -10.3080
    -7.6577  -7.6294  -7.6294  -7.5545  -7.5545  -7.5252  -7.4597  -7.4597
    -6.8170  -6.4149  -6.4149  -6.4107   1.0887   1.1015   1.1015   1.5976

          k = 0.1250 0.1250 0.2500 (  6838 PWs)   bands (ev):

   -24.4778 -24.4572 -24.4557 -24.4487 -10.3558 -10.3538 -10.3470 -10.3117
    -7.6621  -7.6235  -7.5991  -7.5585  -7.5516  -7.5383  -7.4792  -7.4659
    -6.7545  -6.4447  -6.4120  -6.3994   1.1315   1.1617   1.1986   1.5859

          k = 0.1250 0.1250 0.3750 (  6817 PWs)   bands (ev):

   -24.4716 -24.4552 -24.4502 -24.4489 -10.3545 -10.3537 -10.3341 -10.3166
    -7.6592  -7.6280  -7.5793  -7.5646  -7.5437  -7.5185  -7.4907  -7.4648
    -6.6645  -6.4949  -6.4010  -6.3953   1.2007   1.2268   1.3289   1.5440

          k = 0.1250 0.1250-0.5000 (  6838 PWs)   bands (ev):

   -24.4655 -24.4655 -24.4522 -24.4522 -10.3577 -10.3577 -10.3264 -10.3264
    -7.6563  -7.6563  -7.5812  -7.5812  -7.5304  -7.5304  -7.4913  -7.4913
    -6.5767  -6.5767  -6.4057  -6.4057   1.2395   1.2395   1.4552   1.4554

          k = 0.1250 0.2500 0.2500 (  6839 PWs)   bands (ev):

   -24.4758 -24.4582 -24.4544 -24.4502 -10.3557 -10.3492 -10.3488 -10.3170
    -7.6697  -7.6195  -7.5986  -7.5779  -7.5471  -7.5333  -7.4757  -7.4678
    -6.7115  -6.4445  -6.4335  -6.4067   1.1819   1.2410   1.2487   1.5580

          k = 0.1250 0.2500 0.3750 (  6835 PWs)   bands (ev):

   -24.4717 -24.4574 -24.4549 -24.4491 -10.3566 -10.3521 -10.3409 -10.3214
    -7.6675  -7.6321  -7.6060  -7.5775  -7.5257  -7.5102  -7.4880  -7.4801
    -6.6374  -6.4899  -6.4318  -6.4104   1.2406   1.2885   1.3548   1.5399

          k = 0.1250 0.2500-0.5000 (  6838 PWs)   bands (ev):

   -24.4650 -24.4650 -24.4539 -24.4539 -10.3547 -10.3547 -10.3311 -10.3311
    -7.6549  -7.6549  -7.5865  -7.5865  -7.5129  -7.5129  -7.4936  -7.4936
    -6.5587  -6.5587  -6.4265  -6.4265   1.2927   1.2927   1.4781   1.4795

          k = 0.1250 0.3750 0.3750 (  6848 PWs)   bands (ev):

   -24.4691 -24.4575 -24.4555 -24.4533 -10.3559 -10.3475 -10.3467 -10.3306
    -7.6704  -7.6430  -7.6287  -7.5935  -7.5265  -7.5116  -7.4876  -7.4793
    -6.5904  -6.4780  -6.4726  -6.4347   1.3059   1.3787   1.3949   1.5203

          k = 0.1250 0.3750-0.5000 (  6824 PWs)   bands (ev):

   -24.4601 -24.4601 -24.4510 -24.4510 -10.3486 -10.3486 -10.3371 -10.3371
    -7.6473  -7.6473  -7.6117  -7.6117  -7.4911  -7.4911  -7.4850  -7.4850
    -6.5239  -6.5239  -6.4474  -6.4474   1.3718   1.3720   1.4994   1.5057

          k = 0.1250-0.5000-0.5000 (  6848 PWs)   bands (ev):

   -24.4566 -24.4566 -24.4566 -24.4566 -10.3464 -10.3464 -10.3464 -10.3464
    -7.6455  -7.6455  -7.6455  -7.6455  -7.4942  -7.4942  -7.4942  -7.4942
    -6.4895  -6.4895  -6.4895  -6.4895   1.4424   1.4424   1.4427   1.4430

          k = 0.2500 0.2500 0.2500 (  6809 PWs)   bands (ev):

   -24.4685 -24.4534 -24.4498 -24.4498 -10.3486 -10.3486 -10.3472 -10.3183
    -7.6671  -7.6029  -7.6029  -7.5789  -7.5205  -7.5205  -7.4656  -7.4656
    -6.6632  -6.4285  -6.4285  -6.4268   1.2518   1.3038   1.3038   1.5614

          k = 0.2500 0.2500 0.3750 (  6844 PWs)   bands (ev):

   -24.4690 -24.4605 -24.4571 -24.4539 -10.3545 -10.3534 -10.3443 -10.3265
    -7.6768  -7.6403  -7.6043  -7.5940  -7.5276  -7.5060  -7.4835  -7.4701
    -6.6139  -6.4921  -6.4448  -6.4377   1.2832   1.3407   1.3888   1.5163

          k = 0.2500 0.2500-0.5000 (  6834 PWs)   bands (ev):

   -24.4636 -24.4636 -24.4543 -24.4543 -10.3522 -10.3522 -10.3353 -10.3353
    -7.6549  -7.6549  -7.5974  -7.5974  -7.5067  -7.5067  -7.4743  -7.4743
    -6.5457  -6.5457  -6.4406  -6.4406   1.3379   1.3379   1.4917   1.5119

          k = 0.2500 0.3750 0.3750 (  6855 PWs)   bands (ev):

   -24.4681 -24.4597 -24.4587 -24.4558 -10.3550 -10.3498 -10.3488 -10.3339
    -7.6753  -7.6403  -7.6305  -7.6117  -7.5144  -7.5038  -7.4797  -7.4752
    -6.5803  -6.4872  -6.4814  -6.4587   1.3376   1.4065   1.4246   1.4950

          k = 0.2500 0.3750-0.5000 (  6852 PWs)   bands (ev):

   -24.4630 -24.4630 -24.4566 -24.4566 -10.3526 -10.3526 -10.3412 -10.3412
    -7.6586  -7.6586  -7.6195  -7.6195  -7.4992  -7.4992  -7.4789  -7.4789
    -6.5300  -6.5300  -6.4704  -6.4704   1.3883   1.3886   1.4809   1.4846

          k = 0.2500-0.5000-0.5000 (  6860 PWs)   bands (ev):

   -24.4593 -24.4593 -24.4593 -24.4593 -10.3491 -10.3491 -10.3491 -10.3491
    -7.6479  -7.6479  -7.6479  -7.6479  -7.4894  -7.4894  -7.4894  -7.4894
    -6.5015  -6.5015  -6.5015  -6.5015   1.4404   1.4406   1.4409   1.4412

          k = 0.3750 0.3750 0.3750 (  6839 PWs)   bands (ev):

   -24.4651 -24.4603 -24.4545 -24.4545 -10.3499 -10.3478 -10.3478 -10.3383
    -7.6641  -7.6362  -7.6246  -7.6246  -7.4933  -7.4933  -7.4646  -7.4646
    -6.5599  -6.4921  -6.4817  -6.4817   1.3911   1.4506   1.4507   1.4669

          k = 0.3750 0.3750-0.5000 (  6854 PWs)   bands (ev):

   -24.4618 -24.4618 -24.4574 -24.4574 -10.3520 -10.3520 -10.3448 -10.3448
    -7.6554  -7.6554  -7.6350  -7.6350  -7.4906  -7.4906  -7.4719  -7.4719
    -6.5258  -6.5258  -6.4926  -6.4926   1.4181   1.4183   1.4657   1.4664

          k = 0.3750-0.5000-0.5000 (  6844 PWs)   bands (ev):

   -24.4588 -24.4588 -24.4588 -24.4588 -10.3478 -10.3478 -10.3478 -10.3478
    -7.6456  -7.6456  -7.6456  -7.6456  -7.4712  -7.4712  -7.4712  -7.4712
    -6.5102  -6.5102  -6.5102  -6.5102   1.4441   1.4441   1.4442   1.4445

          k =-0.5000-0.5000-0.5000 (  6776 PWs)   bands (ev):

   -24.4481 -24.4481 -24.4481 -24.4481 -10.3422 -10.3422 -10.3422 -10.3422
    -7.6236  -7.6236  -7.6236  -7.6236  -7.4391  -7.4391  -7.4391  -7.4391
    -6.4905  -6.4905  -6.4905  -6.4905   1.4690   1.4690   1.4692   1.4693

          k = 0.0000 0.2500 0.1250 (  6837 PWs)   bands (ev):

   -24.4781 -24.4568 -24.4523 -24.4501 -10.3557 -10.3546 -10.3470 -10.3104
    -7.6482  -7.6424  -7.5989  -7.5629  -7.5470  -7.5438  -7.4858  -7.4616
    -6.7718  -6.4460  -6.4036  -6.3907   1.1132   1.1435   1.1820   1.5807

          k = 0.0000 0.3750 0.1250 (  6815 PWs)   bands (ev):

   -24.4705 -24.4554 -24.4500 -24.4494 -10.3555 -10.3539 -10.3341 -10.3127
    -7.6532  -7.6340  -7.5732  -7.5592  -7.5524  -7.5218  -7.4925  -7.4594
    -6.6713  -6.4995  -6.3952  -6.3900   1.1810   1.2049   1.3218   1.5508

          k = 0.0000-0.5000 0.1250 (  6842 PWs)   bands (ev):

   -24.4686 -24.4686 -24.4515 -24.4515 -10.3570 -10.3570 -10.3265 -10.3265
    -7.6501  -7.6501  -7.5816  -7.5816  -7.5450  -7.5450  -7.4906  -7.4906
    -6.5877  -6.5877  -6.3990  -6.3990   1.2179   1.2180   1.4453   1.4464

          k = 0.0000 0.3750 0.2500 (  6826 PWs)   bands (ev):

   -24.4692 -24.4571 -24.4509 -24.4500 -10.3554 -10.3500 -10.3384 -10.3209
    -7.6529  -7.6472  -7.5818  -7.5598  -7.5444  -7.5297  -7.4794  -7.4658
    -6.6381  -6.4923  -6.4219  -6.4043   1.2330   1.2703   1.3469   1.5436

          k = 0.0000-0.5000 0.2500 (  6838 PWs)   bands (ev):

   -24.4642 -24.4642 -24.4526 -24.4526 -10.3550 -10.3550 -10.3302 -10.3302
    -7.6565  -7.6565  -7.5785  -7.5785  -7.5433  -7.5433  -7.4776  -7.4776
    -6.5614  -6.5614  -6.4179  -6.4179   1.2798   1.2798   1.4661   1.4666

          k = 0.0000-0.5000 0.3750 (  6838 PWs)   bands (ev):

   -24.4595 -24.4595 -24.4551 -24.4551 -10.3514 -10.3514 -10.3366 -10.3366
    -7.6606  -7.6606  -7.6110  -7.6110  -7.5173  -7.5173  -7.4746  -7.4746
    -6.5254  -6.5254  -6.4509  -6.4509   1.3634   1.3634   1.4845   1.4848

          k =-0.1250 0.3750 0.2500 (  6835 PWs)   bands (ev):

   -24.4706 -24.4603 -24.4528 -24.4492 -10.3552 -10.3519 -10.3415 -10.3223
    -7.6645  -7.6407  -7.5976  -7.5764  -7.5370  -7.5183  -7.4872  -7.4663
    -6.6361  -6.4938  -6.4281  -6.4108   1.2465   1.2951   1.3595   1.5328

          k =-0.1250-0.5000 0.2500 (  6838 PWs)   bands (ev):

   -24.4666 -24.4666 -24.4522 -24.4522 -10.3548 -10.3548 -10.3311 -10.3311
    -7.6591  -7.6591  -7.5841  -7.5841  -7.5292  -7.5292  -7.4757  -7.4757
    -6.5624  -6.5624  -6.4225  -6.4225   1.2988   1.2988   1.4713   1.4744

          k =-0.1250-0.5000 0.3750 (  6824 PWs)   bands (ev):

   -24.4613 -24.4613 -24.4497 -24.4497 -10.3487 -10.3487 -10.3368 -10.3368
    -7.6505  -7.6505  -7.6044  -7.6044  -7.5103  -7.5103  -7.4692  -7.4692
    -6.5274  -6.5274  -6.4448  -6.4448   1.3781   1.3782   1.4909   1.4956

          k =-0.2500-0.5000 0.3750 (  6852 PWs)   bands (ev):

   -24.4627 -24.4627 -24.4570 -24.4570 -10.3529 -10.3529 -10.3413 -10.3413
    -7.6571  -7.6571  -7.6246  -7.6246  -7.5000  -7.5000  -7.4741  -7.4741
    -6.5295  -6.5295  -6.4711  -6.4711   1.3896   1.3896   1.4799   1.4799

     the Fermi energy is    -4.8973 ev

!    total energy              =    -224.34650173 Ry
     Harris-Foulkes estimate   =    -224.34650173 Ry
     estimated scf accuracy    <          1.2E-11 Ry

     total all-electron energy =      -224.346502 Ry

     The total energy is the sum of the following terms:

     one-electron contribution =    -136.39534488 Ry
     hartree contribution      =      78.24387493 Ry
     xc contribution           =     -39.39322995 Ry
     ewald contribution        =     -58.09235209 Ry
     one-center paw contrib.   =     -68.70944973 Ry
     smearing contrib. (-TS)   =       0.00000000 Ry

     convergence has been achieved in   5 iterations

     Forces acting on atoms (cartesian axes, Ry/au):

     atom    1 type  1   force =    -0.00023952   -0.00023952   -0.00023952
     atom    2 type  1   force =     0.00023952    0.00023952   -0.00023952
     atom    3 type  1   force =     0.00023952   -0.00023952    0.00023952
     atom    4 type  1   force =    -0.00023952    0.00023952    0.00023952
     atom    5 type  1   force =     0.00023952    0.00023952    0.00023952
     atom    6 type  1   force =    -0.00023952   -0.00023952    0.00023952
     atom    7 type  1   force =    -0.00023952    0.00023952   -0.00023952
     atom    8 type  1   force =     0.00023952   -0.00023952   -0.00023952

     Total force =     0.001173     Total SCF correction =     0.000006

     bfgs converged in   4 scf cycles and   2 bfgs steps
     (criteria: energy <  1.0E-04 Ry, force <  1.0E-03 Ry/Bohr)

     End of BFGS Geometry Optimization

     Final energy   =    -224.3465017301 Ry
Begin final coordinates

ATOMIC_POSITIONS (crystal)
N        0.552385977   0.552385977   0.552385977
N        0.947614023   0.447614023   0.052385977
N        0.447614023   0.052385977   0.947614023
N        0.052385977   0.947614023   0.447614023
N        0.447614023   0.447614023   0.447614023
N        0.052385977   0.552385977   0.947614023
N        0.552385977   0.947614023   0.052385977
N        0.947614023   0.052385977   0.552385977
End final coordinates



     Writing output data file relax.save/
 
     init_run     :      2.89s CPU      2.93s WALL (       1 calls)
     electrons    :     78.81s CPU     79.75s WALL (       4 calls)
     update_pot   :      0.49s CPU      0.49s WALL (       3 calls)
     forces       :      1.28s CPU      1.29s WALL (       4 calls)

     Called by init_run:
     wfcinit      :      2.21s CPU      2.24s WALL (       1 calls)
     potinit      :      0.14s CPU      0.14s WALL (       1 calls)
     hinit0       :      0.17s CPU      0.18s WALL (       1 calls)

     Called by electrons:
     c_bands      :     66.48s CPU     67.29s WALL (      25 calls)
     sum_band     :      8.53s CPU      8.63s WALL (      25 calls)
     v_of_rho     :      0.46s CPU      0.46s WALL (      28 calls)
     newd         :      0.26s CPU      0.27s WALL (      28 calls)
     PAW_pot      :      3.80s CPU      3.81s WALL (      31 calls)
     mix_rho      :      0.07s CPU      0.07s WALL (      25 calls)

     Called by c_bands:
     init_us_2    :      1.25s CPU      1.27s WALL (    2610 calls)
     cegterg      :     62.45s CPU     63.24s WALL (    1125 calls)

     Called by sum_band:
     sum_band:bec :      0.02s CPU      0.02s WALL (    1260 calls)
     addusdens    :      0.25s CPU      0.25s WALL (      25 calls)

     Called by *egterg:
     h_psi        :     44.46s CPU     45.20s WALL (    4819 calls)
     s_psi        :      3.20s CPU      3.22s WALL (    4819 calls)
     g_psi        :      0.26s CPU      0.26s WALL (    3649 calls)
     cdiaghg      :      4.05s CPU      4.07s WALL (    4594 calls)

     Called by h_psi:
     h_psi:pot    :     44.04s CPU     44.78s WALL (    4819 calls)
     h_psi:calbec :      3.32s CPU      3.36s WALL (    4819 calls)
     vloc_psi     :     36.99s CPU     37.67s WALL (    4819 calls)
     add_vuspsi   :      3.69s CPU      3.72s WALL (    4819 calls)

     General routines
     calbec       :      4.92s CPU      4.98s WALL (    6799 calls)
     fft          :      0.35s CPU      0.36s WALL (     408 calls)
     ffts         :      0.02s CPU      0.02s WALL (      53 calls)
     fftw         :     38.58s CPU     39.27s WALL (  206516 calls)
     interpolate  :      0.04s CPU      0.04s WALL (      28 calls)
 
     Parallel routines
     fft_scatt_xy :      4.93s CPU      5.02s WALL (  206977 calls)
     fft_scatt_yz :     16.57s CPU     16.84s WALL (  206977 calls)
 
     PWSCF        :  1m24.99s CPU     1m26.10s WALL

 
   This run was terminated on:  13:53:28  16Jul2019            

=------------------------------------------------------------------------------=
   JOB DONE.
=------------------------------------------------------------------------------=
