===== VARIABLES =====
EXE_PATH = /scr/szymansk/2019-3/qe-bin/bin/pw.x
tpp = 4
Parallel keywords = -nimage 1
MPIRUN_EXE = orterun
PATH = /scr/szymansk/2019-3/mmshare-v4.7/lib/Linux-x86_64/openmpi/bin:/scr/szymansk/2019-3/internal/bin:/scr/szymansk/2019-3/mmshare-v4.7/bin/Linux-x86_64:/scr/szymansk/gaopaw/Examples/P/workdir_pp.3:.:/scr/szymansk/gaopaw/Examples/P:/scr/szymansk/gaopaw/scripts:/home/szymansk/bin:/scr/szymansk/dakota/bin:/scr/szymansk/atompaw-4.1.0.5/src/:/usr/lib64/qt-3.3/bin:/usr/local/bin:/usr/local/sbin:/usr/bin:/usr/sbin:/bin:/sbin
LD_LIBRARY_PATH = /scr/szymansk/2019-3/mmshare-v4.7/lib/Linux-x86_64/openmpi/lib:/scr/szymansk/2019-3/internal/lib/ssl:/scr/szymansk/2019-3/internal/lib:/scr/szymansk/2019-3/mmshare-v4.7/lib/Linux-x86_64:/scr/szymansk/2019-3/internal/lib/python3.6/site-packages:/scr/szymansk/dakota/bin:/software/lib/Linux-x86_64/ifort_2017.1.132/mkl/lib/intel64
===== END VARIABLES =====
Invoking: exe_cmd () 
{ 
    "$MPIRUN_EXE" -np $tpp "$EXE_PATH" -in $input_file "${P_KEYWORDS[@]}"
}

     Program PWSCF v.6.3MaX starts on 30Jul2019 at 16:58:35 

     This program is part of the open-source Quantum ESPRESSO suite
     for quantum simulation of materials; please cite
         "P. Giannozzi et al., J. Phys.:Condens. Matter 21 395502 (2009);
         "P. Giannozzi et al., J. Phys.:Condens. Matter 29 465901 (2017);
          URL http://www.quantum-espresso.org", 
     in publications or presentations arising from this work. More details at
     http://www.quantum-espresso.org/quote

     Parallel version (MPI), running on     4 processors

     MPI processes distributed on     1 nodes
     R & G space division:  proc/nbgrp/npool/nimage =       4
     Reading input from P.ortho.relax.in

     Current dimensions of program PWSCF are:
     Max number of different atomic species (ntypx) = 10
     Max number of k-points (npk) =  40000
     Max angular momentum in pseudopotentials (lmaxx) =  3
               file P.GGA-PBE-paw.UPF: wavefunction(s)  Xn Xn Xn renormalized

     Subspace diagonalization in iterative solution of the eigenvalue problem:
     a serial algorithm will be used

 
     Parallelization info
     --------------------
     sticks:   dense  smooth     PW     G-vecs:    dense   smooth      PW
     Min         247     198     69                 6161     4414     891
     Max         248     199     70                 6162     4416     893
     Sum         991     793    277                24647    17661    3567
 


     bravais-lattice index     =           -9
     lattice parameter (alat)  =       6.2660  a.u.
     unit-cell volume          =     516.6094 (a.u.)^3
     number of atoms/cell      =            4
     number of atomic types    =            1
     number of electrons       =        20.00
     number of Kohn-Sham states=           14
     kinetic-energy cutoff     =      40.0000  Ry
     charge density cutoff     =     200.0000  Ry
     convergence threshold     =      1.0E-08
     mixing beta               =       0.7000
     number of iterations used =            8  plain     mixing
     Exchange-correlation      = SLA PW PBX PBC ( 1  4  3  4 0 0)
     nstep                     =           50


     celldm(1)=   6.266000  celldm(2)=   3.172000  celldm(3)=   1.324000
     celldm(4)=   0.000000  celldm(5)=   0.000000  celldm(6)=   0.000000

     crystal axes: (cart. coord. in units of alat)
               a(1) = (   0.500000  -1.586000   0.000000 )  
               a(2) = (   0.500000   1.586000   0.000000 )  
               a(3) = (   0.000000   0.000000   1.324000 )  

     reciprocal axes: (cart. coord. in units 2 pi/alat)
               b(1) = (  1.000000 -0.315259  0.000000 )  
               b(2) = (  1.000000  0.315259  0.000000 )  
               b(3) = (  0.000000  0.000000  0.755287 )  


     PseudoPot. # 1 for P  read from file:
     ./P.GGA-PBE-paw.UPF
     MD5 check sum: f033fa61922ad81939c0e9bef5fd2d82
     Pseudo is Projector augmented-wave + core cor, Zval =  5.0
     Generated using ATOMPAW code
     Shape of augmentation charge: SINC**2
     Using radial grid of 2342 points,  4 beta functions with: 
                l(1) =   0
                l(2) =   0
                l(3) =   1
                l(4) =   1
     Q(r) pseudized with 0 coefficients 


     atomic species   valence    mass     pseudopotential
        P              5.00    30.97376     P ( 1.00)

      8 Sym. Ops., with inversion, found ( 4 have fractional translation)



   Cartesian axes

     site n.     atom                  positions (alat units)
         1           P   tau(   1) = (   0.5000000   0.3108681   0.7811570  )
         2           P   tau(   2) = (   0.5000000   1.2751319   0.1191570  )
         3           P   tau(   3) = (   0.5000000  -1.2751319   1.2048430  )
         4           P   tau(   4) = (   0.5000000  -0.3108681   0.5428430  )

     number of k points=    65  Fermi-Dirac smearing, width (Ry)=  0.0020
                       cart. coord. in units 2pi/alat
        k(    1) = (   0.0000000   0.0000000   0.0000000), wk =   0.0069444
        k(    2) = (   0.0000000   0.0000000   0.0944109), wk =   0.0138889
        k(    3) = (   0.0000000   0.0000000   0.1888218), wk =   0.0138889
        k(    4) = (   0.0000000   0.0000000   0.2832326), wk =   0.0138889
        k(    5) = (   0.0000000   0.0000000  -0.3776435), wk =   0.0069444
        k(    6) = (   0.1666667   0.0525431   0.0000000), wk =   0.0277778
        k(    7) = (   0.1666667   0.0525431   0.0944109), wk =   0.0555556
        k(    8) = (   0.1666667   0.0525431   0.1888218), wk =   0.0555556
        k(    9) = (   0.1666667   0.0525431   0.2832326), wk =   0.0555556
        k(   10) = (   0.1666667   0.0525431  -0.3776435), wk =   0.0277778
        k(   11) = (   0.3333333   0.1050862   0.0000000), wk =   0.0277778
        k(   12) = (   0.3333333   0.1050862   0.0944109), wk =   0.0555556
        k(   13) = (   0.3333333   0.1050862   0.1888218), wk =   0.0555556
        k(   14) = (   0.3333333   0.1050862   0.2832326), wk =   0.0555556
        k(   15) = (   0.3333333   0.1050862  -0.3776435), wk =   0.0277778
        k(   16) = (  -0.5000000  -0.1576293   0.0000000), wk =   0.0138889
        k(   17) = (  -0.5000000  -0.1576293   0.0944109), wk =   0.0277778
        k(   18) = (  -0.5000000  -0.1576293   0.1888218), wk =   0.0277778
        k(   19) = (  -0.5000000  -0.1576293   0.2832326), wk =   0.0277778
        k(   20) = (  -0.5000000  -0.1576293  -0.3776435), wk =   0.0138889
        k(   21) = (   0.3333333   0.0000000   0.0000000), wk =   0.0138889
        k(   22) = (   0.3333333   0.0000000   0.0944109), wk =   0.0277778
        k(   23) = (   0.3333333   0.0000000   0.1888218), wk =   0.0277778
        k(   24) = (   0.3333333   0.0000000   0.2832326), wk =   0.0277778
        k(   25) = (   0.3333333   0.0000000  -0.3776435), wk =   0.0138889
        k(   26) = (   0.5000000   0.0525431   0.0000000), wk =   0.0277778
        k(   27) = (   0.5000000   0.0525431   0.0944109), wk =   0.0555556
        k(   28) = (   0.5000000   0.0525431   0.1888218), wk =   0.0555556
        k(   29) = (   0.5000000   0.0525431   0.2832326), wk =   0.0555556
        k(   30) = (   0.5000000   0.0525431  -0.3776435), wk =   0.0277778
        k(   31) = (  -0.3333333  -0.2101723   0.0000000), wk =   0.0277778
        k(   32) = (  -0.3333333  -0.2101723   0.0944109), wk =   0.0555556
        k(   33) = (  -0.3333333  -0.2101723   0.1888218), wk =   0.0555556
        k(   34) = (  -0.3333333  -0.2101723   0.2832326), wk =   0.0555556
        k(   35) = (  -0.3333333  -0.2101723  -0.3776435), wk =   0.0277778
        k(   36) = (  -0.1666667  -0.1576293   0.0000000), wk =   0.0277778
        k(   37) = (  -0.1666667  -0.1576293   0.0944109), wk =   0.0555556
        k(   38) = (  -0.1666667  -0.1576293   0.1888218), wk =   0.0555556
        k(   39) = (  -0.1666667  -0.1576293   0.2832326), wk =   0.0555556
        k(   40) = (  -0.1666667  -0.1576293  -0.3776435), wk =   0.0277778
        k(   41) = (   0.0000000  -0.1050862   0.0000000), wk =   0.0138889
        k(   42) = (   0.0000000  -0.1050862   0.0944109), wk =   0.0277778
        k(   43) = (   0.0000000  -0.1050862   0.1888218), wk =   0.0277778
        k(   44) = (   0.0000000  -0.1050862   0.2832326), wk =   0.0277778
        k(   45) = (   0.0000000  -0.1050862  -0.3776435), wk =   0.0138889
        k(   46) = (   0.6666667   0.0000000   0.0000000), wk =   0.0138889
        k(   47) = (   0.6666667   0.0000000   0.0944109), wk =   0.0277778
        k(   48) = (   0.6666667   0.0000000   0.1888218), wk =   0.0277778
        k(   49) = (   0.6666667   0.0000000   0.2832326), wk =   0.0277778
        k(   50) = (   0.6666667   0.0000000  -0.3776435), wk =   0.0138889
        k(   51) = (  -0.1666667  -0.2627154   0.0000000), wk =   0.0277778
        k(   52) = (  -0.1666667  -0.2627154   0.0944109), wk =   0.0555556
        k(   53) = (  -0.1666667  -0.2627154   0.1888218), wk =   0.0555556
        k(   54) = (  -0.1666667  -0.2627154   0.2832326), wk =   0.0555556
        k(   55) = (  -0.1666667  -0.2627154  -0.3776435), wk =   0.0277778
        k(   56) = (  -0.0000000  -0.2101723   0.0000000), wk =   0.0138889
        k(   57) = (  -0.0000000  -0.2101723   0.0944109), wk =   0.0277778
        k(   58) = (  -0.0000000  -0.2101723   0.1888218), wk =   0.0277778
        k(   59) = (  -0.0000000  -0.2101723   0.2832326), wk =   0.0277778
        k(   60) = (  -0.0000000  -0.2101723  -0.3776435), wk =   0.0138889
        k(   61) = (  -1.0000000   0.0000000   0.0000000), wk =   0.0069444
        k(   62) = (  -1.0000000   0.0000000   0.0944109), wk =   0.0138889
        k(   63) = (  -1.0000000   0.0000000   0.1888218), wk =   0.0138889
        k(   64) = (  -1.0000000   0.0000000   0.2832326), wk =   0.0138889
        k(   65) = (  -1.0000000   0.0000000  -0.3776435), wk =   0.0069444

     Dense  grid:    24647 G-vectors     FFT dimensions: (  48,  48,  40)

     Smooth grid:    17661 G-vectors     FFT dimensions: (  45,  45,  36)

     Estimated max dynamical RAM per process >      17.85 MB

     Estimated total dynamical RAM >      71.40 MB

     Check: negative/imaginary core charge=   -0.000003    0.000000

     Initial potential from superposition of free atoms
     Check: negative starting charge=   -0.024922

     starting charge   19.99942, renormalised to   20.00000

     negative rho (up, down):  2.492E-02 0.000E+00
     Starting wfcs are   32 randomized atomic wfcs
     Checking if some PAW data can be deallocated... 

     total cpu time spent up to now is        1.5 secs

     Self-consistent Calculation

     iteration #  1     ecut=    40.00 Ry     beta= 0.70
     Davidson diagonalization with overlap
     ethr =  1.00E-02,  avg # of iterations =  3.1

     Threshold (ethr) on eigenvalues was too large:
     Diagonalizing with lowered threshold

     Davidson diagonalization with overlap
     ethr =  3.28E-04,  avg # of iterations =  2.0

     negative rho (up, down):  3.449E-02 0.000E+00

     total cpu time spent up to now is        3.3 secs

     total energy              =    -222.12766777 Ry
     Harris-Foulkes estimate   =    -222.14526558 Ry
     estimated scf accuracy    <       0.06536177 Ry

     iteration #  2     ecut=    40.00 Ry     beta= 0.70
     Davidson diagonalization with overlap
     ethr =  3.27E-04,  avg # of iterations =  1.0

     negative rho (up, down):  3.790E-02 0.000E+00

     total cpu time spent up to now is        4.6 secs

     total energy              =    -222.13000525 Ry
     Harris-Foulkes estimate   =    -222.13115137 Ry
     estimated scf accuracy    <       0.00383315 Ry

     iteration #  3     ecut=    40.00 Ry     beta= 0.70
     Davidson diagonalization with overlap
     ethr =  1.92E-05,  avg # of iterations =  3.7

     negative rho (up, down):  3.824E-02 0.000E+00

     total cpu time spent up to now is        6.3 secs

     total energy              =    -222.13022133 Ry
     Harris-Foulkes estimate   =    -222.13061205 Ry
     estimated scf accuracy    <       0.00064128 Ry

     iteration #  4     ecut=    40.00 Ry     beta= 0.70
     Davidson diagonalization with overlap
     ethr =  3.21E-06,  avg # of iterations =  2.6

     negative rho (up, down):  3.837E-02 0.000E+00

     total cpu time spent up to now is        7.9 secs

     total energy              =    -222.13040577 Ry
     Harris-Foulkes estimate   =    -222.13047507 Ry
     estimated scf accuracy    <       0.00014145 Ry

     iteration #  5     ecut=    40.00 Ry     beta= 0.70
     Davidson diagonalization with overlap
     ethr =  7.07E-07,  avg # of iterations =  2.0

     negative rho (up, down):  3.839E-02 0.000E+00

     total cpu time spent up to now is        9.1 secs

     total energy              =    -222.13043578 Ry
     Harris-Foulkes estimate   =    -222.13043602 Ry
     estimated scf accuracy    <       0.00000090 Ry

     iteration #  6     ecut=    40.00 Ry     beta= 0.70
     Davidson diagonalization with overlap
     ethr =  4.49E-09,  avg # of iterations =  2.9

     negative rho (up, down):  3.838E-02 0.000E+00

     total cpu time spent up to now is       10.2 secs

     total energy              =    -222.13043631 Ry
     Harris-Foulkes estimate   =    -222.13043631 Ry
     estimated scf accuracy    <       0.00000006 Ry

     iteration #  7     ecut=    40.00 Ry     beta= 0.70
     Davidson diagonalization with overlap
     ethr =  2.82E-10,  avg # of iterations =  2.0

     negative rho (up, down):  3.838E-02 0.000E+00

     total cpu time spent up to now is       11.6 secs

     End of self-consistent calculation

          k = 0.0000 0.0000 0.0000 (  2215 PWs)   bands (ev):

    -8.5758  -5.5574  -2.1500   0.5384   2.6638   3.0499   3.0551   4.6114
     4.8570   6.3758   8.2801   8.3012   9.1837  10.5094

          k = 0.0000 0.0000 0.0944 (  2239 PWs)   bands (ev):

    -8.4881  -5.6993  -2.1664   0.4729   2.6081   3.0135   3.1139   4.5725
     5.4816   5.7821   8.2459   9.0713   9.0846  10.3593

          k = 0.0000 0.0000 0.1888 (  2201 PWs)   bands (ev):

    -8.2295  -6.1026  -2.0897   0.1207   2.2371   3.2980   3.8805   4.4439
     4.7838   6.4231   8.5130   8.7586  10.1134  10.2445

          k = 0.0000 0.0000 0.2832 (  2204 PWs)   bands (ev):

    -7.8152  -6.6724  -1.7815  -0.5488   2.4319   3.5765   3.7943   4.2126
     5.0028   6.7219   8.6189   8.8040  10.0585  10.8721

          k = 0.0000 0.0000-0.3776 (  2208 PWs)   bands (ev):

    -7.2766  -7.2766  -1.2420  -1.2420   2.9993   2.9993   3.9031   3.9031
     6.0472   6.0472   8.8335   8.8335  10.3139  10.3139

          k = 0.1667 0.0525 0.0000 (  2220 PWs)   bands (ev):

    -8.2346  -5.2461  -2.4244   0.8481   1.7816   1.9363   2.9198   4.1475
     4.9670   6.5558   8.5999   9.2914  10.4228  11.1039

          k = 0.1667 0.0525 0.0944 (  2218 PWs)   bands (ev):

    -8.1481  -5.3919  -2.3782   0.6864   1.7121   1.8853   3.3911   3.7391
     5.4027   6.0337   8.9716   9.4470  10.4053  11.0606

          k = 0.1667 0.0525 0.1888 (  2210 PWs)   bands (ev):

    -7.8933  -5.7980  -2.1904   0.1800   1.6314   2.0983   3.1696   4.3894
     5.1211   5.7503   9.5201   9.8296  10.4170  10.9587

          k = 0.1667 0.0525 0.2832 (  2206 PWs)   bands (ev):

    -7.4857  -6.3619  -1.8054  -0.5308   1.7992   2.3601   2.9071   4.1307
     5.3349   5.8311   9.4712  10.1905  10.9247  11.1565

          k = 0.1667 0.0525-0.3776 (  2206 PWs)   bands (ev):

    -6.9562  -6.9562  -1.2327  -1.2327   2.1250   2.1250   3.3550   3.3550
     5.7636   5.7636   9.7413   9.7413  11.3275  11.3275

          k = 0.3333 0.1051 0.0000 (  2218 PWs)   bands (ev):

    -7.2309  -4.3106  -3.7572  -0.6139   1.3715   1.6372   3.5414   4.3228
     4.8988   5.9906   8.0574   9.1932   9.5361   9.9245

          k = 0.3333 0.1051 0.0944 (  2212 PWs)   bands (ev):

    -7.1499  -4.5499  -3.5241  -0.7097   1.0994   1.7222   3.7446   4.0313
     4.7500   5.9649   8.5902   9.0432   9.5474   9.9445

          k = 0.3333 0.1051 0.1888 (  2208 PWs)   bands (ev):

    -6.9123  -4.9949  -3.0962  -1.0010   0.8067   1.7120   3.3140   4.1447
     4.5660   5.8517   8.7816   9.4967  10.0930  10.7962

          k = 0.3333 0.1051 0.2832 (  2200 PWs)   bands (ev):

    -6.5357  -5.5173  -2.5844  -1.4635   0.7783   1.4408   3.1360   3.8668
     4.6861   5.5290   9.4361  10.0161  10.9536  11.1321

          k = 0.3333 0.1051-0.3776 (  2200 PWs)   bands (ev):

    -6.0532  -6.0532  -2.0206  -2.0206   1.0323   1.0323   3.4152   3.4152
     5.0587   5.0587  10.4340  10.4340  10.7402  10.7402

          k =-0.5000-0.1576 0.0000 (  2200 PWs)   bands (ev):

    -5.6472  -5.6472  -2.7529  -2.7529   1.9399   1.9399   4.1614   4.1614
     4.9066   4.9066   8.4575   8.4575   9.1531   9.1531

          k =-0.5000-0.1576 0.0944 (  2198 PWs)   bands (ev):

    -5.5918  -5.5918  -2.7941  -2.7941   1.8010   1.8010   3.7989   3.7989
     5.2079   5.2079   8.3951   8.3951   9.8575   9.8575

          k =-0.5000-0.1576 0.1888 (  2206 PWs)   bands (ev):

    -5.4442  -5.4442  -2.9204  -2.9204   1.5909   1.5909   3.1752   3.1752
     5.5109   5.5109   9.0000   9.0000  10.1716  10.1716

          k =-0.5000-0.1576 0.2832 (  2212 PWs)   bands (ev):

    -5.2687  -5.2687  -3.0936  -3.0936   1.5845   1.5845   2.5277   2.5277
     5.6868   5.6868   9.3736   9.3736  10.6355  10.6355

          k =-0.5000-0.1576-0.3776 (  2216 PWs)   bands (ev):

    -5.1840  -5.1840  -3.1831  -3.1831   1.7419   1.7419   2.1317   2.1317
     5.7572   5.7572   9.2483   9.2483  11.5178  11.5178

          k = 0.3333 0.0000 0.0000 (  2212 PWs)   bands (ev):

    -7.2702  -4.2016  -3.7331  -0.6981   1.3650   1.5085   3.6547   4.4776
     4.7114   6.0742   8.3104   8.9266   9.3912   9.5925

          k = 0.3333 0.0000 0.0944 (  2218 PWs)   bands (ev):

    -7.1883  -4.4836  -3.4666  -0.7758   1.1743   1.5501   3.9234   4.0756
     4.5648   5.9018   8.8872   8.9165   9.3846   9.6253

          k = 0.3333 0.0000 0.1888 (  2210 PWs)   bands (ev):

    -6.9477  -4.9675  -3.0234  -1.0238   0.9364   1.6311   3.3688   4.0936
     4.3693   5.6033   8.6391  10.0427  10.1054  10.4258

          k = 0.3333 0.0000 0.2832 (  2194 PWs)   bands (ev):

    -6.5652  -5.5178  -2.5139  -1.4418   0.9434   1.5473   3.0077   3.7215
     4.4118   5.2048   9.3735  10.5649  11.0739  11.2280

          k = 0.3333 0.0000-0.3776 (  2198 PWs)   bands (ev):

    -6.0719  -6.0719  -1.9671  -1.9671   1.2080   1.2080   3.2334   3.2334
     4.7311   4.7311  10.5832  10.5832  11.0811  11.0811

          k = 0.5000 0.0525 0.0000 (  2200 PWs)   bands (ev):

    -5.7094  -5.5794  -2.9307  -2.5723   1.8685   1.9995   4.1248   4.2277
     4.5855   5.2310   8.3730   8.4324   9.1888   9.3266

          k = 0.5000 0.0525 0.0944 (  2200 PWs)   bands (ev):

    -5.6514  -5.5272  -2.9522  -2.6356   1.7143   1.9028   3.7469   3.7664
     4.9653   5.6038   8.1512   8.4804   9.8050   9.9431

          k = 0.5000 0.0525 0.1888 (  2206 PWs)   bands (ev):

    -5.4945  -5.3902  -3.0269  -2.8166   1.4514   1.7756   2.9975   3.2992
     5.2013   5.9041   8.6216   9.1746   9.8687  10.5909

          k = 0.5000 0.0525 0.2832 (  2212 PWs)   bands (ev):

    -5.3000  -5.2363  -3.1399  -3.0479   1.3871   1.8045   2.3261   2.7764
     5.3579   5.8600   9.3272   9.6692  10.5127  10.8704

          k = 0.5000 0.0525-0.3776 (  2210 PWs)   bands (ev):

    -5.1842  -5.1842  -3.1820  -3.1820   1.6195   1.6195   2.3010   2.3010
     5.6168   5.6168   9.5528   9.5528  11.5115  11.5115

          k =-0.3333-0.2102 0.0000 (  2202 PWs)   bands (ev):

    -7.1457  -4.5270  -3.8034  -0.4350   1.3726   1.9401   3.2322   4.0325
     5.3421   5.8782   7.9685   9.4906   9.5012  10.1800

          k =-0.3333-0.2102 0.0944 (  2193 PWs)   bands (ev):

    -7.0667  -4.6947  -3.6243  -0.5695   1.0324   1.9453   3.5134   3.8627
     5.2427   5.9804   8.4153   9.2322   9.8155   9.9746

          k =-0.3333-0.2102 0.1888 (  2199 PWs)   bands (ev):

    -6.8359  -5.0583  -3.2318  -0.9524   0.6381   1.6881   3.3890   4.1627
     5.1812   6.1251   8.7480   9.4101  10.0839  10.8180

          k =-0.3333-0.2102 0.2832 (  2205 PWs)   bands (ev):

    -6.4728  -5.5193  -2.7210  -1.5078   0.5372   1.2054   3.4383   4.1095
     5.3872   6.0723   9.0763   9.9165  10.3505  10.9610

          k =-0.3333-0.2102-0.3776 (  2210 PWs)   bands (ev):

    -6.0146  -6.0146  -2.1278  -2.1278   0.7570   0.7570   3.7507   3.7507
     5.7521   5.7521   9.7051   9.7051  10.7187  10.7187

          k =-0.1667-0.1576 0.0000 (  2212 PWs)   bands (ev):

    -8.1609  -5.4375  -2.4070   1.1233   1.6957   2.0131   2.7106   3.8902
     5.3174   6.9645   8.5235   9.3962  10.2771  11.1541

          k =-0.1667-0.1576 0.0944 (  2213 PWs)   bands (ev):

    -8.0760  -5.5445  -2.4151   0.7537   1.6489   2.0561   3.1656   3.7869
     5.5939   6.5744   8.6662   9.6357  10.3378  11.2207

          k =-0.1667-0.1576 0.1888 (  2203 PWs)   bands (ev):

    -7.8264  -5.8698  -2.3386   0.0298   1.4981   2.4452   3.2450   4.3748
     5.7843   5.9333   9.1914  10.0459  10.3859  10.7992

          k =-0.1667-0.1576 0.2832 (  2210 PWs)   bands (ev):

    -7.4295  -6.3664  -2.0420  -0.7840   1.6685   2.3973   3.4636   4.7557
     5.4703   6.0078   9.6825  10.0484  10.6455  10.9390

          k =-0.1667-0.1576-0.3776 (  2210 PWs)   bands (ev):

    -6.9210  -6.9210  -1.5063  -1.5063   2.0203   2.0203   4.0724   4.0724
     5.9037   5.9037   9.8413   9.8413  11.0021  11.0021

          k = 0.0000-0.1051 0.0000 (  2236 PWs)   bands (ev):

    -8.5343  -5.6687  -2.1251   0.6878   2.5848   2.8444   3.0131   4.6704
     4.9717   6.7360   8.1886   8.4771   9.3010  10.4685

          k = 0.0000-0.1051 0.0944 (  2222 PWs)   bands (ev):

    -8.4474  -5.7881  -2.1886   0.5823   2.3883   3.0784   3.1053   4.6247
     5.5108   6.1800   8.2017   9.0800   9.2028  10.3370

          k = 0.0000-0.1051 0.1888 (  2217 PWs)   bands (ev):

    -8.1916  -6.1441  -2.1984   0.0523   2.3807   3.2667   3.8928   4.4780
     5.2198   6.4150   8.4554   8.8241  10.0787  10.1293

          k = 0.0000-0.1051 0.2832 (  2207 PWs)   bands (ev):

    -7.7833  -6.6747  -1.9526  -0.7240   2.7792   3.5536   4.2185   4.2237
     4.9993   6.6974   8.6513   8.7934  10.1127  10.9736

          k = 0.0000-0.1051-0.3776 (  2198 PWs)   bands (ev):

    -7.2564  -7.2564  -1.4375  -1.4375   3.4203   3.4203   3.8940   3.8940
     6.0147   6.0147   8.8569   8.8569  10.3974  10.3974

          k = 0.6667 0.0000 0.0000 (  2204 PWs)   bands (ev):

    -7.0990  -4.6358  -3.8256  -0.3383   1.3649   2.1528   3.0065   3.8973
     5.5794   5.8383   8.3755   8.8274   9.4920  10.3407

          k = 0.6667 0.0000 0.0944 (  2199 PWs)   bands (ev):

    -7.0212  -4.7734  -3.6679  -0.4931   1.0053   2.0262   3.4903   3.7067
     5.6159   5.8844   8.7444   8.8367   9.8171   9.9100

          k = 0.6667 0.0000 0.1888 (  2198 PWs)   bands (ev):

    -6.7943  -5.0949  -3.2949  -0.9247   0.5673   1.6349   3.5130   4.1125
     5.7196   6.0582   8.4947   9.7399   9.9218  10.8635

          k = 0.6667 0.0000 0.2832 (  2209 PWs)   bands (ev):

    -6.4390  -5.5223  -2.7875  -1.5298   0.4377   1.0968   3.6169   4.2002
     5.9103   6.2295   8.6718  10.1350  10.2357  10.8783

          k = 0.6667 0.0000-0.3776 (  2218 PWs)   bands (ev):

    -5.9947  -5.9947  -2.1816  -2.1816   0.6433   0.6433   3.9201   3.9201
     6.1324   6.1324   9.3717   9.3717  10.7282  10.7282

          k =-0.1667-0.2627 0.0000 (  2211 PWs)   bands (ev):

    -8.0791  -5.6296  -2.3896   1.5464   1.7435   1.9179   2.2753   3.7423
     6.0499   7.2939   8.2468   9.0352  10.1824  11.1659

          k =-0.1667-0.2627 0.0944 (  2209 PWs)   bands (ev):

    -7.9960  -5.7040  -2.4383   0.8124   1.4788   2.3986   2.9430   3.7209
     6.1678   7.0058   8.4642   9.1835  10.2744  11.2401

          k =-0.1667-0.2627 0.1888 (  2205 PWs)   bands (ev):

    -7.7525  -5.9524  -2.4546  -0.1305   1.3761   2.6711   3.6655   4.1430
     6.2854   6.4557   8.9663   9.7368  10.3458  10.8833

          k =-0.1667-0.2627 0.2832 (  2197 PWs)   bands (ev):

    -7.3684  -6.3759  -2.2414  -1.0190   1.5755   2.3889   4.2150   4.9777
     5.8865   6.3219   9.5685   9.9333  10.1770  10.8554

          k =-0.1667-0.2627-0.3776 (  2194 PWs)   bands (ev):

    -6.8846  -6.8846  -1.7471  -1.7471   1.9546   1.9546   4.8084   4.8084
     6.0938   6.0938   9.7693   9.7693  10.3143  10.3143

          k =-0.0000-0.2102 0.0000 (  2220 PWs)   bands (ev):

    -8.4437  -5.8910  -2.0731   1.0712   2.2331   2.4923   2.9460   4.7827
     5.5635   7.4287   8.0442   8.3964   9.4591  10.3932

          k =-0.0000-0.2102 0.0944 (  2211 PWs)   bands (ev):

    -8.3587  -5.9714  -2.2105   0.7143   2.2165   3.0136   3.0643   4.7233
     5.9024   6.9480   8.0851   8.8470   9.2872  10.3010

          k =-0.0000-0.2102 0.1888 (  2207 PWs)   bands (ev):

    -8.1094  -6.2372  -2.3633  -0.1640   2.8543   3.2094   3.8352   4.5405
     6.0994   6.5821   8.3407   8.8763   9.5306  10.1739

          k =-0.0000-0.2102 0.2832 (  2206 PWs)   bands (ev):

    -7.7147  -6.6842  -2.2320  -1.0519   3.5108   3.5964   4.2426   4.7294
     5.3033   6.6648   8.6689   8.7640  10.2346  10.2597

          k =-0.0000-0.2102-0.3776 (  2200 PWs)   bands (ev):

    -7.2147  -7.2147  -1.7720  -1.7720   3.8760   3.8760   4.3426   4.3426
     5.9010   5.9010   8.8682   8.8682  10.5758  10.5758

          k =-1.0000 0.0000 0.0000 (  2202 PWs)   bands (ev):

    -8.3937  -6.0033  -2.0460   1.4482   1.8378   2.3383   2.9151   4.8365
     6.2085   7.7223   7.8340   8.0688   9.5047  10.3581

          k =-1.0000 0.0000 0.0944 (  2196 PWs)   bands (ev):

    -8.3098  -6.0668  -2.2121   0.7270   2.2563   2.9381   2.9837   4.7701
     6.4499   7.2323   8.0360   8.3852   9.3132  10.2868

          k =-1.0000 0.0000 0.1888 (  2220 PWs)   bands (ev):

    -8.0642  -6.2896  -2.4257  -0.2882   3.1828   3.2393   3.6693   4.5694
     6.5626   6.8871   8.2129   8.9090   9.0416  10.2025

          k =-1.0000 0.0000 0.2832 (  2196 PWs)   bands (ev):

    -7.6775  -6.6920  -2.3493  -1.2051   3.4908   4.2506   4.3349   4.4062
     5.8429   6.6422   8.5111   8.8646   9.8145  10.3031

          k =-1.0000 0.0000-0.3776 (  2204 PWs)   bands (ev):

    -7.1932  -7.1932  -1.9199  -1.9199   3.8672   3.8672   4.9609   4.9609
     5.7371   5.7371   8.8220   8.8220  10.4257  10.4263

     the Fermi energy is     7.7776 ev

!    total energy              =    -222.13043632 Ry
     Harris-Foulkes estimate   =    -222.13043632 Ry
     estimated scf accuracy    <          3.1E-09 Ry

     total all-electron energy =      -222.130436 Ry

     The total energy is the sum of the following terms:

     one-electron contribution =       8.21305141 Ry
     hartree contribution      =       6.42333193 Ry
     xc contribution           =     -17.18433671 Ry
     ewald contribution        =     -51.30110410 Ry
     one-center paw contrib.   =    -168.28136853 Ry
     smearing contrib. (-TS)   =      -0.00001031 Ry

     convergence has been achieved in   7 iterations

     negative rho (up, down):  3.838E-02 0.000E+00

     Forces acting on atoms (cartesian axes, Ry/au):

     atom    1 type  1   force =     0.00000000    0.01766866   -0.02970585
     atom    2 type  1   force =    -0.00000000   -0.01766866   -0.02970585
     atom    3 type  1   force =    -0.00000000    0.01766866    0.02970585
     atom    4 type  1   force =     0.00000000   -0.01766866    0.02970585

     Total force =     0.069127     Total SCF correction =     0.000084


     Computing stress (Cartesian axis) and pressure


     negative rho (up, down):  3.838E-02 0.000E+00
          total   stress  (Ry/bohr**3)                   (kbar)     P=   53.69
   0.00026698   0.00000000   0.00000000         39.27      0.00      0.00
   0.00000000   0.00037579   0.00000000          0.00     55.28      0.00
   0.00000000   0.00000000   0.00045218          0.00      0.00     66.52


     BFGS Geometry Optimization

     number of scf cycles    =   1
     number of bfgs steps    =   0

     enthalpy new            =    -222.1304363227 Ry

     new trust radius        =       0.0513881679 bohr
     new conv_thr            =       0.0000000100 Ry

     new unit-cell volume =    530.87756 a.u.^3 (    78.66794 Ang^3 )
     density =      2.61520 g/cm^3

CELL_PARAMETERS (alat=  6.26600000)
   0.503337196  -1.600900148   0.000000000
   0.503337196   1.600900148   0.000000000
   0.000000000   0.000000000   1.338967179

ATOMIC_POSITIONS (crystal)
P        0.401107244   0.598892756   0.586417056
P        0.098892756   0.901107244   0.086417056
P        0.901107244   0.098892756   0.913582944
P        0.598892756   0.401107244   0.413582944



     Writing output data file relax.save/
     Check: negative starting charge=   -0.024922
     NEW-OLD atomic charge density approx. for the potential

     Check: negative/imaginary core charge=   -0.000004    0.000000
     Check: negative starting charge=   -0.025475

     negative rho (up, down):  3.929E-02 0.000E+00
     extrapolated charge   20.53751, renormalised to   20.00000

     total cpu time spent up to now is       13.0 secs

     Self-consistent Calculation

     iteration #  1     ecut=    40.00 Ry     beta= 0.70
     Davidson diagonalization with overlap
     ethr =  1.00E-06,  avg # of iterations =  6.7

     negative rho (up, down):  3.751E-02 0.000E+00

     total cpu time spent up to now is       16.2 secs

     total energy              =    -222.12460371 Ry
     Harris-Foulkes estimate   =    -222.34542996 Ry
     estimated scf accuracy    <       0.01070421 Ry

     iteration #  2     ecut=    40.00 Ry     beta= 0.70
     Davidson diagonalization with overlap
     ethr =  5.35E-05,  avg # of iterations =  3.3

     negative rho (up, down):  3.739E-02 0.000E+00

     total cpu time spent up to now is       18.0 secs

     total energy              =    -222.13476730 Ry
     Harris-Foulkes estimate   =    -222.14799517 Ry
     estimated scf accuracy    <       0.03506787 Ry

     iteration #  3     ecut=    40.00 Ry     beta= 0.70
     Davidson diagonalization with overlap
     ethr =  5.35E-05,  avg # of iterations =  2.0

     negative rho (up, down):  3.736E-02 0.000E+00

     total cpu time spent up to now is       19.1 secs

     total energy              =    -222.13768911 Ry
     Harris-Foulkes estimate   =    -222.13836350 Ry
     estimated scf accuracy    <       0.00297382 Ry

     iteration #  4     ecut=    40.00 Ry     beta= 0.70
     Davidson diagonalization with overlap
     ethr =  1.49E-05,  avg # of iterations =  1.0

     negative rho (up, down):  3.736E-02 0.000E+00

     total cpu time spent up to now is       20.0 secs

     total energy              =    -222.13732564 Ry
     Harris-Foulkes estimate   =    -222.13777888 Ry
     estimated scf accuracy    <       0.00137926 Ry

     iteration #  5     ecut=    40.00 Ry     beta= 0.70
     Davidson diagonalization with overlap
     ethr =  6.90E-06,  avg # of iterations =  2.1

     negative rho (up, down):  3.734E-02 0.000E+00

     total cpu time spent up to now is       21.3 secs

     total energy              =    -222.13742564 Ry
     Harris-Foulkes estimate   =    -222.13746646 Ry
     estimated scf accuracy    <       0.00016618 Ry

     iteration #  6     ecut=    40.00 Ry     beta= 0.70
     Davidson diagonalization with overlap
     ethr =  8.31E-07,  avg # of iterations =  2.0

     negative rho (up, down):  3.731E-02 0.000E+00

     total cpu time spent up to now is       22.6 secs

     total energy              =    -222.13739380 Ry
     Harris-Foulkes estimate   =    -222.13743295 Ry
     estimated scf accuracy    <       0.00006856 Ry

     iteration #  7     ecut=    40.00 Ry     beta= 0.70
     Davidson diagonalization with overlap
     ethr =  3.43E-07,  avg # of iterations =  2.1

     negative rho (up, down):  3.731E-02 0.000E+00

     total cpu time spent up to now is       24.1 secs

     total energy              =    -222.13741441 Ry
     Harris-Foulkes estimate   =    -222.13741511 Ry
     estimated scf accuracy    <       0.00000382 Ry

     iteration #  8     ecut=    40.00 Ry     beta= 0.70
     Davidson diagonalization with overlap
     ethr =  1.91E-08,  avg # of iterations =  2.0

     negative rho (up, down):  3.731E-02 0.000E+00

     total cpu time spent up to now is       25.5 secs

     total energy              =    -222.13741410 Ry
     Harris-Foulkes estimate   =    -222.13741480 Ry
     estimated scf accuracy    <       0.00000185 Ry

     iteration #  9     ecut=    40.00 Ry     beta= 0.70
     Davidson diagonalization with overlap
     ethr =  9.26E-09,  avg # of iterations =  1.9

     negative rho (up, down):  3.731E-02 0.000E+00

     total cpu time spent up to now is       27.0 secs

     total energy              =    -222.13741420 Ry
     Harris-Foulkes estimate   =    -222.13741428 Ry
     estimated scf accuracy    <       0.00000020 Ry

     iteration # 10     ecut=    40.00 Ry     beta= 0.70
     Davidson diagonalization with overlap
     ethr =  1.00E-09,  avg # of iterations =  2.0

     negative rho (up, down):  3.731E-02 0.000E+00

     total cpu time spent up to now is       28.5 secs

     End of self-consistent calculation

          k = 0.0000 0.0000 0.0000 (  2215 PWs)   bands (ev):

    -8.5612  -5.6215  -2.4036   0.4156   2.4410   2.5490   3.0241   4.5380
     4.5521   6.0172   7.9979   8.1612   8.9727  10.1103

          k = 0.0000 0.0000 0.0934 (  2239 PWs)   bands (ev):

    -8.4756  -5.7585  -2.4167   0.3334   2.1716   2.7798   3.0872   4.5028
     5.1295   5.4508   8.1296   8.7384   8.8482   9.9664

          k = 0.0000 0.0000 0.1867 (  2201 PWs)   bands (ev):

    -8.2233  -6.1496  -2.3357  -0.0788   1.9019   3.2687   3.6191   4.3838
     4.4936   6.0595   8.3832   8.4964   9.7276   9.8322

          k = 0.0000 0.0000 0.2801 (  2204 PWs)   bands (ev):

    -7.8191  -6.7044  -2.0268  -0.7877   2.1548   3.5113   3.5428   4.1635
     4.7422   6.4170   8.2979   8.6058   9.6722  10.4622

          k = 0.0000 0.0000-0.3734 (  2208 PWs)   bands (ev):

    -7.2936  -7.2936  -1.4881  -1.4881   2.7319   2.7319   3.8629   3.8629
     5.7732   5.7732   8.5443   8.5443   9.9198   9.9198

          k = 0.1656 0.0521 0.0000 (  2220 PWs)   bands (ev):

    -8.2265  -5.3160  -2.6555   0.7209   1.5187   1.8628   2.6962   3.9243
     4.6716   6.1631   8.3024   8.9125  10.2653  10.6676

          k = 0.1656 0.0521 0.0934 (  2218 PWs)   bands (ev):

    -8.1422  -5.4574  -2.6101   0.5176   1.5982   1.6762   3.1910   3.5378
     5.0999   5.6794   8.6211   9.0669  10.1551  10.7213

          k = 0.1656 0.0521 0.1867 (  2210 PWs)   bands (ev):

    -7.8938  -5.8523  -2.4245  -0.0471   1.5814   1.8809   3.0274   4.1382
     4.8223   5.4524   9.1165   9.4174  10.0580  10.6891

          k = 0.1656 0.0521 0.2801 (  2206 PWs)   bands (ev):

    -7.4965  -6.4014  -2.0441  -0.7769   1.7570   2.2487   2.6955   3.8349
     5.0868   5.5436   9.0777   9.8000  10.5241  10.9001

          k = 0.1656 0.0521-0.3734 (  2206 PWs)   bands (ev):

    -6.9805  -6.9805  -1.4774  -1.4774   2.0848   2.0848   3.0763   3.0763
     5.4919   5.4919   9.3594   9.3594  10.9964  10.9964

          k = 0.3311 0.1041 0.0000 (  2218 PWs)   bands (ev):

    -7.2435  -4.3983  -3.8887  -0.7915   1.2912   1.5014   3.3154   4.0199
     4.6333   5.6636   7.6636   8.8374   9.1311   9.5263

          k = 0.3311 0.1041 0.0934 (  2212 PWs)   bands (ev):

    -7.1650  -4.6400  -3.6513  -0.8847   1.0104   1.5937   3.4990   3.7529
     4.4828   5.6407   8.1858   8.6354   9.1852   9.5831

          k = 0.3311 0.1041 0.1867 (  2208 PWs)   bands (ev):

    -6.9346  -5.0765  -3.2261  -1.1687   0.7145   1.5955   3.0239   3.8928
     4.3033   5.5385   8.3842   9.1324   9.6869  10.4028

          k = 0.3311 0.1041 0.2801 (  2200 PWs)   bands (ev):

    -6.5697  -5.5836  -2.7213  -1.6210   0.6796   1.3317   2.8524   3.5951
     4.4255   5.2325   9.0333   9.6794  10.4983  10.7254

          k = 0.3311 0.1041-0.3734 (  2200 PWs)   bands (ev):

    -6.1025  -6.1025  -2.1672  -2.1672   0.9258   0.9258   3.1408   3.1408
     4.7817   4.7817  10.0384  10.0384  10.3353  10.3353

          k =-0.4967-0.1562 0.0000 (  2200 PWs)   bands (ev):

    -5.7006  -5.7006  -2.8732  -2.8732   1.8132   1.8132   3.9142   3.9142
     4.6193   4.6193   8.0841   8.0841   8.7125   8.7125

          k =-0.4967-0.1562 0.0934 (  2198 PWs)   bands (ev):

    -5.6488  -5.6488  -2.9072  -2.9072   1.6699   1.6699   3.5492   3.5492
     4.9127   4.9127   8.0254   8.0254   9.4223   9.4223

          k =-0.4967-0.1562 0.1867 (  2206 PWs)   bands (ev):

    -5.5118  -5.5118  -3.0132  -3.0132   1.4483   1.4483   2.9280   2.9280
     5.1958   5.1958   8.6419   8.6419   9.8019   9.8019

          k =-0.4967-0.1562 0.2801 (  2212 PWs)   bands (ev):

    -5.3511  -5.3511  -3.1603  -3.1603   1.4314   1.4314   2.2833   2.2833
     5.3561   5.3561   9.0733   9.0733  10.2125  10.2125

          k =-0.4967-0.1562-0.3734 (  2216 PWs)   bands (ev):

    -5.2747  -5.2747  -3.2365  -3.2365   1.6172   1.6172   1.8560   1.8560
     5.4197   5.4197   8.9660   8.9660  11.0188  11.0188

          k = 0.3311 0.0000 0.0000 (  2212 PWs)   bands (ev):

    -7.2832  -4.2887  -3.8658  -0.8732   1.2857   1.3716   3.4016   4.1808
     4.4720   5.7263   7.9010   8.5744   8.9935   9.2428

          k = 0.3311 0.0000 0.0934 (  2218 PWs)   bands (ev):

    -7.2037  -4.5752  -3.5921  -0.9480   1.0866   1.4162   3.6702   3.7801
     4.3281   5.5663   8.4641   8.5068   9.0248   9.3180

          k = 0.3311 0.0000 0.1867 (  2210 PWs)   bands (ev):

    -6.9704  -5.0500  -3.1505  -1.1881   0.8388   1.5106   3.0736   3.8254
     4.1304   5.2980   8.2531   9.6513   9.7175  10.0480

          k = 0.3311 0.0000 0.2801 (  2194 PWs)   bands (ev):

    -6.5994  -5.5847  -2.6471  -1.5951   0.8372   1.4416   2.7112   3.4446
     4.1648   4.9249   8.9783  10.2188  10.6035  10.8324

          k = 0.3311 0.0000-0.3734 (  2198 PWs)   bands (ev):

    -6.1216  -6.1216  -2.1093  -2.1093   1.0976   1.0976   2.9517   2.9517
     4.4701   4.4701  10.1518  10.1518  10.7029  10.7029

          k = 0.4967 0.0521 0.0000 (  2200 PWs)   bands (ev):

    -5.7627  -5.6326  -3.0515  -2.6920   1.7379   1.8752   3.8924   3.9409
     4.3353   4.9409   7.9682   8.0650   8.7552   8.8654

          k = 0.4967 0.0521 0.0934 (  2200 PWs)   bands (ev):

    -5.7082  -5.5842  -3.0668  -2.7472   1.5812   1.7729   3.4805   3.5274
     4.6977   5.2898   7.7714   8.1057   9.3847   9.5071

          k = 0.4967 0.0521 0.1867 (  2206 PWs)   bands (ev):

    -5.5617  -5.4582  -3.1224  -2.9063   1.3091   1.6343   2.7325   3.0711
     4.9010   5.5644   8.2667   8.7988   9.5758  10.1731

          k = 0.4967 0.0521 0.2801 (  2212 PWs)   bands (ev):

    -5.3818  -5.3192  -3.2091  -3.1118   1.2300   1.6709   2.0540   2.5457
     5.0419   5.5153   9.0035   9.3864  10.0876  10.4594

          k = 0.4967 0.0521-0.3734 (  2210 PWs)   bands (ev):

    -5.2748  -5.2748  -3.2354  -3.2354   1.4591   1.4591   2.0610   2.0610
     5.2852   5.2852   9.2577   9.2577  11.0142  11.0142

          k =-0.3311-0.2082 0.0000 (  2202 PWs)   bands (ev):

    -7.1573  -4.6164  -3.9326  -0.6175   1.2885   1.8056   3.0383   3.7275
     5.0532   5.5772   7.5633   9.0705   9.1317   9.7322

          k =-0.3311-0.2082 0.0934 (  2193 PWs)   bands (ev):

    -7.0808  -4.7830  -3.7536  -0.7500   0.9453   1.8187   3.2851   3.5959
     4.9472   5.6743   8.0045   8.8061   9.4050   9.5903

          k =-0.3311-0.2082 0.1867 (  2199 PWs)   bands (ev):

    -6.8573  -5.1382  -3.3664  -1.1271   0.5531   1.5725   3.1097   3.9352
     4.8830   5.8077   8.3379   9.0135   9.6605  10.4385

          k =-0.3311-0.2082 0.2801 (  2205 PWs)   bands (ev):

    -6.5061  -5.5847  -2.8648  -1.6735   0.4491   1.0981   3.1683   3.8554
     5.0880   5.7490   8.6827   9.5586   9.9626  10.5214

          k =-0.3311-0.2082-0.3734 (  2210 PWs)   bands (ev):

    -6.0632  -6.0632  -2.2826  -2.2826   0.6600   0.6600   3.4870   3.4870
     5.4387   5.4387   9.3298   9.3298  10.3201  10.3201

          k =-0.1656-0.1562 0.0000 (  2212 PWs)   bands (ev):

    -8.1519  -5.5088  -2.6362   0.9944   1.4553   1.8817   2.5204   3.7089
     4.9851   6.5729   8.1901   9.0000  10.1349  10.7275

          k =-0.1656-0.1562 0.0934 (  2213 PWs)   bands (ev):

    -8.0691  -5.6110  -2.6441   0.5510   1.5661   1.8308   3.0159   3.5789
     5.2644   6.2075   8.3101   9.2242  10.1595  10.8255

          k =-0.1656-0.1562 0.1867 (  2203 PWs)   bands (ev):

    -7.8260  -5.9242  -2.5681  -0.2154   1.4458   2.2833   3.0789   4.1317
     5.4497   5.6266   8.7932   9.6483   9.9407  10.6071

          k =-0.1656-0.1562 0.2801 (  2210 PWs)   bands (ev):

    -7.4395  -6.4054  -2.2749  -1.0317   1.6256   2.3415   3.1933   4.4472
     5.2182   5.7163   9.2865   9.6335  10.2060  10.5724

          k =-0.1656-0.1562-0.3734 (  2210 PWs)   bands (ev):

    -6.9446  -6.9446  -1.7464  -1.7464   1.9774   1.9774   3.7798   3.7798
     5.6344   5.6344   9.4488   9.4488  10.6023  10.6023

          k = 0.0000-0.1041 0.0000 (  2236 PWs)   bands (ev):

    -8.5192  -5.7335  -2.3782   0.5641   2.3512   2.3826   2.9858   4.5993
     4.6460   6.3688   8.0475   8.1673   9.0792  10.0685

          k = 0.0000-0.1041 0.0934 (  2222 PWs)   bands (ev):

    -8.4344  -5.8478  -2.4360   0.4273   2.0193   2.8340   3.0502   4.5573
     5.1522   5.8342   8.0903   8.7369   8.9422   9.9421

          k = 0.0000-0.1041 0.1867 (  2217 PWs)   bands (ev):

    -8.1849  -6.1912  -2.4385  -0.1678   2.0759   3.2360   3.6307   4.4193
     4.9084   6.0502   8.3202   8.5563   9.6650   9.7403

          k = 0.0000-0.1041 0.2801 (  2207 PWs)   bands (ev):

    -7.7867  -6.7065  -2.1911  -0.9654   2.5042   3.5187   3.9209   4.1750
     4.7387   6.3932   8.3291   8.5909   9.7230  10.5609

          k = 0.0000-0.1041-0.3734 (  2198 PWs)   bands (ev):

    -7.2730  -7.2730  -1.6787  -1.6787   3.1433   3.1433   3.8533   3.8533
     5.7408   5.7408   8.5698   8.5698  10.0002  10.0002

          k = 0.6622 0.0000 0.0000 (  2204 PWs)   bands (ev):

    -7.1099  -4.7260  -3.9536  -0.5233   1.2775   2.0204   2.8208   3.5952
     5.2901   5.5458   7.9327   8.4053   9.1294   9.8896

          k = 0.6622 0.0000 0.0934 (  2199 PWs)   bands (ev):

    -7.0346  -4.8615  -3.7977  -0.6766   0.9175   1.9003   3.2994   3.4126
     5.3158   5.5879   8.3181   8.3862   9.3905   9.5405

          k = 0.6622 0.0000 0.1867 (  2198 PWs)   bands (ev):

    -6.8151  -5.1743  -3.4315  -1.1033   0.4838   1.5205   3.2328   3.8969
     5.4040   5.7520   8.0726   9.3402   9.4549  10.4986

          k = 0.6622 0.0000 0.2801 (  2209 PWs)   bands (ev):

    -6.4718  -5.5873  -2.9343  -1.6997   0.3533   0.9932   3.3489   3.9562
     5.5815   5.9037   8.2744   9.7614   9.8648  10.4369

          k = 0.6622 0.0000-0.3734 (  2218 PWs)   bands (ev):

    -6.0429  -6.0429  -2.3402  -2.3402   0.5511   0.5511   3.6611   3.6611
     5.7962   5.7962   8.9941   8.9941  10.3612  10.3612

          k =-0.1656-0.2603 0.0000 (  2211 PWs)   bands (ev):

    -8.0686  -5.7026  -2.6165   1.4143   1.4647   1.7887   2.1075   3.6037
     5.6888   6.9050   7.8663   8.6475  10.0542  10.7491

          k =-0.1656-0.2603 0.0934 (  2209 PWs)   bands (ev):

    -7.9877  -5.7720  -2.6644   0.5587   1.4204   2.1879   2.7926   3.5472
     5.8142   6.6299   8.0753   8.7753  10.1243  10.8422

          k =-0.1656-0.2603 0.1867 (  2205 PWs)   bands (ev):

    -7.7507  -6.0075  -2.6802  -0.3883   1.3331   2.5724   3.4377   3.9164
     5.9454   6.1146   8.5556   9.2983   9.9723  10.6582

          k =-0.1656-0.2603 0.2801 (  2197 PWs)   bands (ev):

    -7.3771  -6.4146  -2.4700  -1.2666   1.5354   2.3389   3.9192   4.7184
     5.5775   6.0275   9.1272   9.5336   9.7475  10.5083

          k =-0.1656-0.2603-0.3734 (  2194 PWs)   bands (ev):

    -6.9072  -6.9072  -1.9835  -1.9835   1.9122   1.9122   4.4988   4.4988
     5.8275   5.8275   9.3223   9.3223   9.9449   9.9449

          k = 0.0000-0.2082 0.0000 (  2220 PWs)   bands (ev):

    -8.4271  -5.9576  -2.3251   0.9432   2.0154   2.0628   2.9163   4.7157
     5.2000   7.0758   7.8788   8.0213   9.2169   9.9918

          k = 0.0000-0.2082 0.0934 (  2211 PWs)   bands (ev):

    -8.3443  -6.0329  -2.4532   0.5082   1.9542   2.7579   2.9831   4.6595
     5.5266   6.5851   7.9618   8.4428   9.0307   9.9025

          k = 0.0000-0.2082 0.1867 (  2207 PWs)   bands (ev):

    -8.1013  -6.2853  -2.5951  -0.4064   2.5920   3.1764   3.5610   4.4842
     5.7537   6.2192   8.1955   8.5718   9.1275   9.7784

          k = 0.0000-0.2082 0.2801 (  2206 PWs)   bands (ev):

    -7.7168  -6.7157  -2.4615  -1.2932   3.3177   3.4741   4.1944   4.4519
     4.9940   6.3655   8.4093   8.4835   9.8363   9.8375

          k = 0.0000-0.2082-0.3734 (  2200 PWs)   bands (ev):

    -7.2304  -7.2304  -2.0061  -2.0061   3.8344   3.8344   4.0472   4.0472
     5.6255   5.6255   8.5962   8.5962  10.1713  10.1713

          k =-0.9934 0.0000 0.0000 (  2202 PWs)   bands (ev):

    -8.3760  -6.0711  -2.2974   1.3199   1.6762   1.8670   2.8844   4.7715
     5.8206   7.4480   7.4589   7.8117   9.2531   9.9563

          k =-0.9934 0.0000 0.0934 (  2196 PWs)   bands (ev):

    -8.2943  -6.1294  -2.4528   0.4904   2.0761   2.5873   2.9522   4.7080
     6.0580   6.8759   7.8324   8.0428   9.0443   9.8866

          k =-0.9934 0.0000 0.1867 (  2220 PWs)   bands (ev):

    -8.0552  -6.3385  -2.6541  -0.5360   3.0260   3.1489   3.3522   4.5141
     6.2075   6.5229   8.0042   8.5883   8.6971   9.8035

          k =-0.9934 0.0000 0.2801 (  2196 PWs)   bands (ev):

    -7.6788  -6.7235  -2.5754  -1.4455   3.4533   4.0250   4.1648   4.2026
     5.5047   6.3507   8.2914   8.5254   9.4133   9.9018

          k =-0.9934 0.0000-0.3734 (  2204 PWs)   bands (ev):

    -7.2083  -7.2083  -2.1512  -2.1512   3.8251   3.8251   4.6531   4.6531
     5.4614   5.4614   8.5690   8.5690   9.9251   9.9252

     the Fermi energy is     7.4500 ev

!    total energy              =    -222.13741424 Ry
     Harris-Foulkes estimate   =    -222.13741424 Ry
     estimated scf accuracy    <          2.8E-09 Ry

     total all-electron energy =      -222.137414 Ry

     The total energy is the sum of the following terms:

     one-electron contribution =       8.09029988 Ry
     hartree contribution      =       6.28908979 Ry
     xc contribution           =     -17.08857253 Ry
     ewald contribution        =     -51.15644956 Ry
     one-center paw contrib.   =    -168.27175815 Ry
     smearing contrib. (-TS)   =      -0.00002366 Ry

     convergence has been achieved in  10 iterations

     negative rho (up, down):  3.731E-02 0.000E+00

     Forces acting on atoms (cartesian axes, Ry/au):

     atom    1 type  1   force =     0.00000000    0.00699761   -0.01100744
     atom    2 type  1   force =     0.00000000   -0.00699761   -0.01100744
     atom    3 type  1   force =     0.00000000    0.00699761    0.01100744
     atom    4 type  1   force =     0.00000000   -0.00699761    0.01100744

     Total force =     0.026087     Total SCF correction =     0.000104


     Computing stress (Cartesian axis) and pressure


     negative rho (up, down):  3.731E-02 0.000E+00
          total   stress  (Ry/bohr**3)                   (kbar)     P=   18.64
   0.00002346   0.00000000   0.00000000          3.45      0.00      0.00
   0.00000000   0.00019202   0.00000000          0.00     28.25      0.00
   0.00000000   0.00000000   0.00016468          0.00      0.00     24.22


     number of scf cycles    =   2
     number of bfgs steps    =   1

     enthalpy old            =    -222.1304363227 Ry
     enthalpy new            =    -222.1374142404 Ry

     CASE: enthalpy_new < enthalpy_old

     new trust radius        =       0.0370463145 bohr
     new conv_thr            =       0.0000000011 Ry

     new unit-cell volume =    539.48885 a.u.^3 (    79.94400 Ang^3 )
     density =      2.57346 g/cm^3

CELL_PARAMETERS (alat=  6.26600000)
   0.503914211  -1.613770252   0.000000000
   0.503914211   1.613770252   0.000000000
   0.000000000   0.000000000   1.348289017

ATOMIC_POSITIONS (crystal)
P        0.400511207   0.599488793   0.584160083
P        0.099488793   0.900511207   0.084160083
P        0.900511207   0.099488793   0.915839917
P        0.599488793   0.400511207   0.415839917



     Writing output data file relax.save/
     Check: negative starting charge=   -0.025475
     NEW-OLD atomic charge density approx. for the potential

     Check: negative/imaginary core charge=   -0.000005    0.000000
     Check: negative starting charge=   -0.025781

     negative rho (up, down):  3.770E-02 0.000E+00
     extrapolated charge   20.31923, renormalised to   20.00000

     total cpu time spent up to now is       30.5 secs

     Self-consistent Calculation

     iteration #  1     ecut=    40.00 Ry     beta= 0.70
     Davidson diagonalization with overlap
     ethr =  1.00E-06,  avg # of iterations =  5.8

     negative rho (up, down):  3.667E-02 0.000E+00

     total cpu time spent up to now is       33.0 secs

     total energy              =    -222.13474112 Ry
     Harris-Foulkes estimate   =    -222.26201436 Ry
     estimated scf accuracy    <       0.00327676 Ry

     iteration #  2     ecut=    40.00 Ry     beta= 0.70
     Davidson diagonalization with overlap
     ethr =  1.64E-05,  avg # of iterations =  3.4

     negative rho (up, down):  3.661E-02 0.000E+00

     total cpu time spent up to now is       34.8 secs

     total energy              =    -222.13802980 Ry
     Harris-Foulkes estimate   =    -222.14221137 Ry
     estimated scf accuracy    <       0.01124645 Ry

     iteration #  3     ecut=    40.00 Ry     beta= 0.70
     Davidson diagonalization with overlap
     ethr =  1.64E-05,  avg # of iterations =  2.1

     negative rho (up, down):  3.658E-02 0.000E+00

     total cpu time spent up to now is       36.1 secs

     total energy              =    -222.13891528 Ry
     Harris-Foulkes estimate   =    -222.13914724 Ry
     estimated scf accuracy    <       0.00102541 Ry

     iteration #  4     ecut=    40.00 Ry     beta= 0.70
     Davidson diagonalization with overlap
     ethr =  5.13E-06,  avg # of iterations =  1.0

     negative rho (up, down):  3.657E-02 0.000E+00

     total cpu time spent up to now is       36.9 secs

     total energy              =    -222.13875859 Ry
     Harris-Foulkes estimate   =    -222.13894564 Ry
     estimated scf accuracy    <       0.00047471 Ry

     iteration #  5     ecut=    40.00 Ry     beta= 0.70
     Davidson diagonalization with overlap
     ethr =  2.37E-06,  avg # of iterations =  2.2

     negative rho (up, down):  3.657E-02 0.000E+00

     total cpu time spent up to now is       37.8 secs

     total energy              =    -222.13882196 Ry
     Harris-Foulkes estimate   =    -222.13882679 Ry
     estimated scf accuracy    <       0.00002104 Ry

     iteration #  6     ecut=    40.00 Ry     beta= 0.70
     Davidson diagonalization with overlap
     ethr =  1.05E-07,  avg # of iterations =  1.2

     negative rho (up, down):  3.655E-02 0.000E+00

     total cpu time spent up to now is       38.5 secs

     total energy              =    -222.13881657 Ry
     Harris-Foulkes estimate   =    -222.13882284 Ry
     estimated scf accuracy    <       0.00001089 Ry

     iteration #  7     ecut=    40.00 Ry     beta= 0.70
     Davidson diagonalization with overlap
     ethr =  5.44E-08,  avg # of iterations =  2.1

     negative rho (up, down):  3.655E-02 0.000E+00

     total cpu time spent up to now is       39.4 secs

     total energy              =    -222.13881990 Ry
     Harris-Foulkes estimate   =    -222.13882013 Ry
     estimated scf accuracy    <       0.00000079 Ry

     iteration #  8     ecut=    40.00 Ry     beta= 0.70
     Davidson diagonalization with overlap
     ethr =  3.96E-09,  avg # of iterations =  2.0

     negative rho (up, down):  3.655E-02 0.000E+00

     total cpu time spent up to now is       40.3 secs

     total energy              =    -222.13881991 Ry
     Harris-Foulkes estimate   =    -222.13881999 Ry
     estimated scf accuracy    <       0.00000021 Ry

     iteration #  9     ecut=    40.00 Ry     beta= 0.70
     Davidson diagonalization with overlap
     ethr =  1.06E-09,  avg # of iterations =  2.0

     negative rho (up, down):  3.655E-02 0.000E+00

     total cpu time spent up to now is       41.2 secs

     total energy              =    -222.13881994 Ry
     Harris-Foulkes estimate   =    -222.13881994 Ry
     estimated scf accuracy    <       0.00000001 Ry

     iteration # 10     ecut=    40.00 Ry     beta= 0.70
     Davidson diagonalization with overlap
     ethr =  5.19E-11,  avg # of iterations =  1.9

     negative rho (up, down):  3.655E-02 0.000E+00

     total cpu time spent up to now is       42.0 secs

     total energy              =    -222.13881994 Ry
     Harris-Foulkes estimate   =    -222.13881994 Ry
     estimated scf accuracy    <          2.3E-09 Ry

     iteration # 11     ecut=    40.00 Ry     beta= 0.70
     Davidson diagonalization with overlap
     ethr =  1.17E-11,  avg # of iterations =  2.1

     negative rho (up, down):  3.655E-02 0.000E+00

     total cpu time spent up to now is       42.8 secs

     End of self-consistent calculation

          k = 0.0000 0.0000 0.0000 (  2215 PWs)   bands (ev):

    -8.5497  -5.6871  -2.5236   0.3402   2.2302   2.3023   3.0523   4.3479
     4.5196   5.8031   7.7976   8.1289   8.8951   9.9207

          k = 0.0000 0.0000 0.0927 (  2239 PWs)   bands (ev):

    -8.4655  -5.8169  -2.5428   0.2437   1.8931   2.6399   3.1145   4.4875
     4.9051   5.2493   8.0896   8.5229   8.7663   9.7796

          k = 0.0000 0.0000 0.1854 (  2201 PWs)   bands (ev):

    -8.2175  -6.1916  -2.4751  -0.2151   1.6930   3.2932   3.4744   4.3136
     4.3769   5.8371   8.3457   8.3970   9.5422   9.5638

          k = 0.0000 0.0000 0.2781 (  2204 PWs)   bands (ev):

    -7.8204  -6.7296  -2.1789  -0.9481   1.9825   3.3376   3.5626   4.1670
     4.6059   6.2467   8.1570   8.5243   9.4822  10.2484

          k = 0.0000 0.0000-0.3708 (  2208 PWs)   bands (ev):

    -7.3053  -7.3053  -1.6488  -1.6488   2.5658   2.5658   3.8757   3.8757
     5.6348   5.6348   8.4099   8.4099   9.7204   9.7204

          k = 0.1654 0.0516 0.0000 (  2220 PWs)   bands (ev):

    -8.2166  -5.3830  -2.7562   0.6454   1.3273   1.8650   2.5593   3.7968
     4.4783   5.9363   8.0995   8.7080  10.2329  10.4667

          k = 0.1654 0.0516 0.0927 (  2218 PWs)   bands (ev):

    -8.1338  -5.5170  -2.7186   0.4088   1.4262   1.6677   3.0756   3.4233
     4.9140   5.4690   8.4093   8.8381  10.0139  10.5826

          k = 0.1654 0.0516 0.1854 (  2210 PWs)   bands (ev):

    -7.8898  -5.8955  -2.5496  -0.1935   1.5554   1.7589   2.9545   4.0009
     4.6394   5.2839   8.8791   9.1882   9.8209  10.5578

          k = 0.1654 0.0516 0.2781 (  2206 PWs)   bands (ev):

    -7.4996  -6.4283  -2.1846  -0.9332   1.7480   2.1667   2.5986   3.6586
     4.9496   5.3877   8.8713   9.5810  10.3299  10.6424

          k = 0.1654 0.0516-0.3708 (  2206 PWs)   bands (ev):

    -6.9939  -6.9939  -1.6291  -1.6291   2.0786   2.0786   2.9077   2.9077
     5.3450   5.3450   9.1673   9.1673  10.8261  10.8261

          k = 0.3307 0.1033 0.0000 (  2218 PWs)   bands (ev):

    -7.2396  -4.4697  -3.9323  -0.8984   1.2513   1.4292   3.1839   3.8337
     4.4732   5.4780   7.4252   8.6308   8.8752   9.2635

          k = 0.3307 0.1033 0.0927 (  2212 PWs)   bands (ev):

    -7.1626  -4.6983  -3.7066  -0.9892   0.9627   1.5240   3.3482   3.5953
     4.3243   5.4513   7.9355   8.3890   8.9689   9.3493

          k = 0.3307 0.1033 0.1854 (  2208 PWs)   bands (ev):

    -6.9368  -5.1212  -3.2915  -1.2672   0.6616   1.5268   2.8573   3.7536
     4.1463   5.3473   8.1489   8.8905   9.4493  10.1591

          k = 0.3307 0.1033 0.2781 (  2200 PWs)   bands (ev):

    -6.5792  -5.6153  -2.7951  -1.7115   0.6200   1.2618   2.6987   3.4475
     4.2637   5.0472   8.8012   9.4603  10.2277  10.4698

          k = 0.3307 0.1033-0.3708 (  2200 PWs)   bands (ev):

    -6.1221  -6.1221  -2.2493  -2.2493   0.8588   0.8588   2.9932   2.9932
     4.6077   4.6077   9.7963   9.7963  10.0962  10.0962

          k =-0.4961-0.1549 0.0000 (  2200 PWs)   bands (ev):

    -5.7103  -5.7103  -2.9548  -2.9548   1.7529   1.7529   3.7726   3.7726
     4.4488   4.4488   7.8498   7.8498   8.4395   8.4395

          k =-0.4961-0.1549 0.0927 (  2198 PWs)   bands (ev):

    -5.6605  -5.6605  -2.9840  -2.9840   1.6051   1.6051   3.4044   3.4044
     4.7359   4.7359   7.7998   7.7998   9.1484   9.1484

          k =-0.4961-0.1549 0.1854 (  2206 PWs)   bands (ev):

    -5.5292  -5.5292  -3.0763  -3.0763   1.3721   1.3721   2.7843   2.7843
     5.0033   5.0033   8.4276   8.4276   9.5661   9.5661

          k =-0.4961-0.1549 0.2781 (  2212 PWs)   bands (ev):

    -5.3763  -5.3763  -3.2066  -3.2066   1.3423   1.3423   2.1437   2.1437
     5.1531   5.1531   8.8757   8.8757   9.9709   9.9709

          k =-0.4961-0.1549-0.3708 (  2216 PWs)   bands (ev):

    -5.3040  -5.3040  -3.2745  -3.2745   1.5445   1.5445   1.6963   1.6963
     5.2124   5.2124   8.7783   8.7783  10.7410  10.7410

          k = 0.3307 0.0000 0.0000 (  2212 PWs)   bands (ev):

    -7.2792  -4.3611  -3.9103  -0.9771   1.2460   1.2993   3.2540   3.9966
     4.3283   5.5264   7.6531   8.3720   8.7376   9.0219

          k = 0.3307 0.0000 0.0927 (  2218 PWs)   bands (ev):

    -7.2013  -4.6332  -3.6492  -1.0498   1.0384   1.3446   3.5269   3.5973
     4.1883   5.3710   8.2039   8.2591   8.8190   9.1141

          k = 0.3307 0.0000 0.1854 (  2210 PWs)   bands (ev):

    -6.9725  -5.0947  -3.2161  -1.2840   0.7803   1.4425   2.8990   3.6798
     3.9872   5.1141   8.0251   9.3723   9.5043   9.8257

          k = 0.3307 0.0000 0.2781 (  2194 PWs)   bands (ev):

    -6.6090  -5.6164  -2.7197  -1.6831   0.7700   1.3735   2.5479   3.2965
     4.0138   4.7529   8.7517   9.9925  10.3228  10.5868

          k = 0.3307 0.0000-0.3708 (  2198 PWs)   bands (ev):

    -6.1412  -6.1412  -2.1892  -2.1892   1.0248   1.0248   2.8017   2.8017
     4.3093   4.3093   9.9061   9.9061  10.4586  10.4586

          k = 0.4961 0.0516 0.0000 (  2200 PWs)   bands (ev):

    -5.7721  -5.6425  -3.1312  -2.7758   1.6768   1.8146   3.7617   3.7746
     4.1885   4.7665   7.7117   7.8361   8.4863   8.5818

          k = 0.4961 0.0516 0.0927 (  2200 PWs)   bands (ev):

    -5.7196  -5.5961  -3.1423  -2.8251   1.5175   1.7063   3.3202   3.3975
     4.5361   5.1002   7.5389   7.8782   9.1190   9.2334

          k = 0.4961 0.0516 0.1854 (  2206 PWs)   bands (ev):

    -5.5787  -5.4760  -3.1860  -2.9687   1.2363   1.5543   2.5814   2.9378
     4.7163   5.3568   8.0541   8.5791   9.3862   9.9062

          k = 0.4961 0.0516 0.2781 (  2212 PWs)   bands (ev):

    -5.4066  -5.3448  -3.2565  -3.1569   1.1431   1.5879   1.9019   2.4096
     4.8492   5.3053   8.7941   9.1966   9.8472  10.2141

          k = 0.4961 0.0516-0.3708 (  2210 PWs)   bands (ev):

    -5.3042  -5.3042  -3.2735  -3.2735   1.3623   1.3623   1.9245   1.9245
     5.0838   5.0838   9.0574   9.0574  10.7370  10.7370

          k =-0.3307-0.2066 0.0000 (  2202 PWs)   bands (ev):

    -7.1532  -4.6860  -3.9744  -0.7307   1.2474   1.7330   2.9279   3.5439
     4.8773   5.4082   7.3162   8.7843   8.9252   9.4448

          k =-0.3307-0.2066 0.0927 (  2193 PWs)   bands (ev):

    -7.0782  -4.8422  -3.8055  -0.8606   0.9003   1.7474   3.1470   3.4515
     4.7669   5.4960   7.7492   8.5416   9.1320   9.3711

          k =-0.3307-0.2066 0.1854 (  2199 PWs)   bands (ev):

    -6.8593  -5.1833  -3.4311  -1.2312   0.5071   1.5014   2.9568   3.8105
     4.6971   5.6139   8.0853   8.7591   9.3976  10.2093

          k =-0.3307-0.2066 0.2781 (  2205 PWs)   bands (ev):

    -6.5155  -5.6165  -2.9406  -1.7691   0.3997   1.0326   3.0221   3.7152
     4.8969   5.5455   8.4404   9.3359   9.7178  10.2599

          k =-0.3307-0.2066-0.3708 (  2210 PWs)   bands (ev):

    -6.0828  -6.0828  -2.3687  -2.3687   0.6034   0.6034   3.3422   3.3422
     5.2383   5.2383   9.0928   9.0928  10.0887  10.0887

          k =-0.1654-0.1549 0.0000 (  2212 PWs)   bands (ev):

    -8.1419  -5.5741  -2.7351   0.9171   1.2611   1.8635   2.4038   3.6109
     4.7672   6.3466   7.9779   8.7628  10.1132  10.5307

          k =-0.1654-0.1549 0.0927 (  2213 PWs)   bands (ev):

    -8.0606  -5.6701  -2.7492   0.4163   1.4947   1.7354   2.9305   3.4658
     5.0570   5.9877   8.0970   8.9669  10.0874  10.6159

          k =-0.1654-0.1549 0.1854 (  2203 PWs)   bands (ev):

    -7.8218  -5.9679  -2.6875  -0.3719   1.4296   2.1819   2.9967   3.9994
     5.2458   5.4409   8.5520   9.4196   9.6698  10.5215

          k =-0.1654-0.1549 0.2781 (  2210 PWs)   bands (ev):

    -7.4426  -6.4326  -2.4090  -1.1870   1.6201   2.3233   3.0298   4.2668
     5.0686   5.5505   9.0758   9.3820   9.9567  10.3827

          k =-0.1654-0.1549-0.3708 (  2210 PWs)   bands (ev):

    -6.9581  -6.9581  -1.8927  -1.8927   1.9725   1.9725   3.6005   3.6005
     5.4824   5.4824   9.2480   9.2480  10.3441  10.3441

          k = 0.0000-0.1033 0.0000 (  2236 PWs)   bands (ev):

    -8.5076  -5.7982  -2.4977   0.4877   2.0410   2.2558   3.0135   4.4290
     4.5814   6.1459   7.9433   8.0191   8.9953   9.8788

          k = 0.0000-0.1033 0.0927 (  2222 PWs)   bands (ev):

    -8.4242  -5.9059  -2.5596   0.3246   1.7791   2.6794   3.0770   4.5425
     4.9215   5.6211   8.0676   8.4957   8.8483   9.7541

          k = 0.0000-0.1033 0.1854 (  2217 PWs)   bands (ev):

    -8.1790  -6.2335  -2.5725  -0.3166   1.8868   3.2601   3.4857   4.4129
     4.7120   5.8249   8.2780   8.4548   9.3918   9.5524

          k = 0.0000-0.1033 0.2781 (  2207 PWs)   bands (ev):

    -7.7880  -6.7319  -2.3368  -1.1250   2.3317   3.5382   3.7381   4.1788
     4.5991   6.2227   8.1821   8.5075   9.5298  10.3437

          k = 0.0000-0.1033-0.3708 (  2198 PWs)   bands (ev):

    -7.2847  -7.2847  -1.8338  -1.8338   2.9692   2.9692   3.8661   3.8661
     5.6019   5.6019   8.4335   8.4335   9.7973   9.7973

          k = 0.6615 0.0000 0.0000 (  2204 PWs)   bands (ev):

    -7.1055  -4.7950  -3.9946  -0.6400   1.2354   1.9478   2.7168   3.4152
     5.1154   5.3817   7.6610   8.1215   8.9237   9.6004

          k = 0.6615 0.0000 0.0927 (  2199 PWs)   bands (ev):

    -7.0318  -4.9211  -3.8481  -0.7906   0.8730   1.8271   3.1949   3.2453
     5.1280   5.4187   8.0391   8.1102   9.1170   9.3325

          k = 0.6615 0.0000 0.1854 (  2198 PWs)   bands (ev):

    -6.8169  -5.2198  -3.4956  -1.2105   0.4401   1.4500   3.0806   3.7797
     5.2002   5.5691   7.8090   9.0804   9.1692  10.2901

          k = 0.6615 0.0000 0.2781 (  2209 PWs)   bands (ev):

    -6.4811  -5.6193  -3.0108  -1.7979   0.3077   0.9315   3.2019   3.8213
     5.3688   5.7005   8.0284   9.5265   9.6214  10.1755

          k = 0.6615 0.0000-0.3708 (  2218 PWs)   bands (ev):

    -6.0625  -6.0625  -2.4281  -2.4281   0.4990   0.4990   3.5171   3.5171
     5.5817   5.5817   8.7539   8.7539  10.1411  10.1411

          k =-0.1654-0.2582 0.0000 (  2211 PWs)   bands (ev):

    -8.0581  -5.7668  -2.7136   1.2337   1.3329   1.7862   2.0073   3.5316
     5.4487   6.6826   7.6010   8.4394  10.0421  10.5560

          k =-0.1654-0.2582 0.0927 (  2209 PWs)   bands (ev):

    -7.9787  -5.8308  -2.7664   0.3915   1.3983   2.0638   2.7112   3.4588
     5.5848   6.4048   7.8171   8.5450  10.0873  10.6611

          k =-0.1654-0.2582 0.1854 (  2205 PWs)   bands (ev):

    -7.7462  -6.0520  -2.7947  -0.5516   1.3270   2.5142   3.3104   3.7960
     5.7346   5.9003   8.2885   9.0393   9.7587  10.5544

          k =-0.1654-0.2582 0.2781 (  2197 PWs)   bands (ev):

    -7.3800  -6.4424  -2.5988  -1.4202   1.5344   2.3279   3.7382   4.5782
     5.3775   5.8479   8.8402   9.3206   9.5043  10.2675

          k =-0.1654-0.2582-0.3708 (  2194 PWs)   bands (ev):

    -6.9208  -6.9208  -2.1254  -2.1254   1.9098   1.9098   4.3128   4.3128
     5.6640   5.6640   9.0629   9.0629   9.7291   9.7291

          k = 0.0000-0.2066 0.0000 (  2220 PWs)   bands (ev):

    -8.4151  -6.0207  -2.4434   0.8631   1.7161   1.9565   2.9434   4.6984
     4.9558   6.8418   7.7491   7.8560   9.1234   9.8019

          k = 0.0000-0.2066 0.0927 (  2211 PWs)   bands (ev):

    -8.3337  -6.0905  -2.5725   0.3662   1.7892   2.5830   3.0093   4.6454
     5.2788   6.3528   7.9297   8.1762   8.9319   9.7123

          k = 0.0000-0.2066 0.1854 (  2207 PWs)   bands (ev):

    -8.0951  -6.3283  -2.7209  -0.5667   2.4320   3.2000   3.4051   4.4785
     5.5299   5.9890   8.1382   8.4437   8.8691   9.5852

          k = 0.0000-0.2066 0.2781 (  2206 PWs)   bands (ev):

    -7.7180  -6.7417  -2.5978  -1.4493   3.1426   3.4932   4.1986   4.3038
     4.7939   6.1968   8.2438   8.3909   9.5575   9.6373

          k = 0.0000-0.2066-0.3708 (  2200 PWs)   bands (ev):

    -7.2422  -7.2422  -2.1531  -2.1531   3.8470   3.8470   3.8600   3.8600
     5.4820   5.4820   8.4605   8.4605   9.9606   9.9606

          k =-0.9922 0.0000 0.0000 (  2202 PWs)   bands (ev):

    -8.3636  -6.1336  -2.4149   1.2358   1.5715   1.5796   2.9113   4.7542
     5.5568   7.1717   7.2220   7.7907   9.1564   9.7665

          k =-0.9922 0.0000 0.0927 (  2196 PWs)   bands (ev):

    -8.2834  -6.1869  -2.5703   0.3283   1.9739   2.3754   2.9782   4.6941
     5.7952   6.6321   7.6265   7.9555   8.9406   9.6954

          k =-0.9922 0.0000 0.1854 (  2220 PWs)   bands (ev):

    -8.0487  -6.3821  -2.7765  -0.6986   2.9143   3.1515   3.1723   4.5087
     5.9726   6.2872   7.8683   8.4536   8.5160   9.6075

          k =-0.9922 0.0000 0.2781 (  2196 PWs)   bands (ev):

    -7.6798  -6.7499  -2.7080  -1.5998   3.4723   3.8249   4.0458   4.2069
     5.2797   6.1883   8.1656   8.3539   9.1693   9.6975

          k =-0.9922 0.0000-0.3708 (  2204 PWs)   bands (ev):

    -7.2202  -7.2202  -2.2950  -2.2950   3.8377   3.8377   4.4596   4.4596
     5.3126   5.3126   8.4377   8.4377   9.6018   9.6019

     the Fermi energy is     7.1938 ev

!    total energy              =    -222.13881994 Ry
     Harris-Foulkes estimate   =    -222.13881994 Ry
     estimated scf accuracy    <          4.1E-11 Ry

     total all-electron energy =      -222.138820 Ry

     The total energy is the sum of the following terms:

     one-electron contribution =       7.99059558 Ry
     hartree contribution      =       6.22632348 Ry
     xc contribution           =     -17.03279876 Ry
     ewald contribution        =     -51.05656755 Ry
     one-center paw contrib.   =    -168.26635264 Ry
     smearing contrib. (-TS)   =      -0.00002004 Ry

     convergence has been achieved in  11 iterations

     negative rho (up, down):  3.655E-02 0.000E+00

     Forces acting on atoms (cartesian axes, Ry/au):

     atom    1 type  1   force =     0.00000000   -0.00091073   -0.00038369
     atom    2 type  1   force =     0.00000000    0.00091073   -0.00038369
     atom    3 type  1   force =     0.00000000   -0.00091073    0.00038369
     atom    4 type  1   force =     0.00000000    0.00091073    0.00038369

     Total force =     0.001977     Total SCF correction =     0.000004


     Computing stress (Cartesian axis) and pressure


     negative rho (up, down):  3.655E-02 0.000E+00
          total   stress  (Ry/bohr**3)                   (kbar)     P=   -0.11
  -0.00006343   0.00000000   0.00000000         -9.33      0.00      0.00
   0.00000000   0.00005716   0.00000000          0.00      8.41      0.00
   0.00000000   0.00000000   0.00000397          0.00      0.00      0.58


     number of scf cycles    =   3
     number of bfgs steps    =   2

     enthalpy old            =    -222.1374142404 Ry
     enthalpy new            =    -222.1388199369 Ry

     CASE: enthalpy_new < enthalpy_old

     new trust radius        =       0.0098003596 bohr
     new conv_thr            =            1.0E-10 Ry

     new unit-cell volume =    540.10618 a.u.^3 (    80.03548 Ang^3 )
     density =      2.57052 g/cm^3

CELL_PARAMETERS (alat=  6.26600000)
   0.503108969  -1.617174824   0.000000000
   0.503108969   1.617174824   0.000000000
   0.000000000   0.000000000   1.349145994

ATOMIC_POSITIONS (crystal)
P        0.400517621   0.599482379   0.583937647
P        0.099482379   0.900517621   0.083937647
P        0.900517621   0.099482379   0.916062353
P        0.599482379   0.400517621   0.416062353



     Writing output data file relax.save/
     Check: negative starting charge=   -0.025781
     NEW-OLD atomic charge density approx. for the potential

     Check: negative/imaginary core charge=   -0.000005    0.000000
     Check: negative starting charge=   -0.025787

     negative rho (up, down):  3.656E-02 0.000E+00
     extrapolated charge   20.02286, renormalised to   20.00000

     total cpu time spent up to now is       44.0 secs

     Self-consistent Calculation

     iteration #  1     ecut=    40.00 Ry     beta= 0.70
     Davidson diagonalization with overlap
     ethr =  1.00E-06,  avg # of iterations =  2.5

     Threshold (ethr) on eigenvalues was too large:
     Diagonalizing with lowered threshold

     Davidson diagonalization with overlap
     ethr =  5.89E-08,  avg # of iterations =  1.9

     negative rho (up, down):  3.650E-02 0.000E+00

     total cpu time spent up to now is       45.9 secs

     total energy              =    -222.13890878 Ry
     Harris-Foulkes estimate   =    -222.14765564 Ry
     estimated scf accuracy    <       0.00001224 Ry

     iteration #  2     ecut=    40.00 Ry     beta= 0.70
     Davidson diagonalization with overlap
     ethr =  6.12E-08,  avg # of iterations =  3.0

     negative rho (up, down):  3.650E-02 0.000E+00

     total cpu time spent up to now is       47.8 secs

     total energy              =    -222.13892173 Ry
     Harris-Foulkes estimate   =    -222.13893805 Ry
     estimated scf accuracy    <       0.00004608 Ry

     iteration #  3     ecut=    40.00 Ry     beta= 0.70
     Davidson diagonalization with overlap
     ethr =  6.12E-08,  avg # of iterations =  2.0

     negative rho (up, down):  3.650E-02 0.000E+00

     total cpu time spent up to now is       49.0 secs

     total energy              =    -222.13892403 Ry
     Harris-Foulkes estimate   =    -222.13892588 Ry
     estimated scf accuracy    <       0.00000511 Ry

     iteration #  4     ecut=    40.00 Ry     beta= 0.70
     Davidson diagonalization with overlap
     ethr =  2.55E-08,  avg # of iterations =  1.3

     negative rho (up, down):  3.650E-02 0.000E+00

     total cpu time spent up to now is       49.7 secs

     total energy              =    -222.13892401 Ry
     Harris-Foulkes estimate   =    -222.13892443 Ry
     estimated scf accuracy    <       0.00000087 Ry

     iteration #  5     ecut=    40.00 Ry     beta= 0.70
     Davidson diagonalization with overlap
     ethr =  4.35E-09,  avg # of iterations =  2.2

     negative rho (up, down):  3.650E-02 0.000E+00

     total cpu time spent up to now is       50.6 secs

     total energy              =    -222.13892429 Ry
     Harris-Foulkes estimate   =    -222.13892430 Ry
     estimated scf accuracy    <       0.00000003 Ry

     iteration #  6     ecut=    40.00 Ry     beta= 0.70
     Davidson diagonalization with overlap
     ethr =  1.51E-10,  avg # of iterations =  2.0

     negative rho (up, down):  3.650E-02 0.000E+00

     total cpu time spent up to now is       51.5 secs

     total energy              =    -222.13892429 Ry
     Harris-Foulkes estimate   =    -222.13892429 Ry
     estimated scf accuracy    <          1.5E-09 Ry

     iteration #  7     ecut=    40.00 Ry     beta= 0.70
     Davidson diagonalization with overlap
     ethr =  7.38E-12,  avg # of iterations =  2.0

     negative rho (up, down):  3.650E-02 0.000E+00

     total cpu time spent up to now is       52.5 secs

     total energy              =    -222.13892429 Ry
     Harris-Foulkes estimate   =    -222.13892429 Ry
     estimated scf accuracy    <          3.9E-10 Ry

     iteration #  8     ecut=    40.00 Ry     beta= 0.70
     Davidson diagonalization with overlap
     ethr =  1.93E-12,  avg # of iterations =  2.0

     negative rho (up, down):  3.650E-02 0.000E+00

     total cpu time spent up to now is       53.3 secs

     End of self-consistent calculation

          k = 0.0000 0.0000 0.0000 (  2215 PWs)   bands (ev):

    -8.5541  -5.7107  -2.5237   0.3305   2.1988   2.2834   3.0742   4.3186
     4.5331   5.7904   7.7654   8.1462   8.9144   9.9280

          k = 0.0000 0.0000 0.0927 (  2239 PWs)   bands (ev):

    -8.4702  -5.8382  -2.5467   0.2314   1.8642   2.6236   3.1362   4.5014
     4.8778   5.2337   8.0983   8.5006   8.7867   9.7873

          k = 0.0000 0.0000 0.1853 (  2201 PWs)   bands (ev):

    -8.2227  -6.2077  -2.4868  -0.2347   1.6717   3.3142   3.4639   4.2965
     4.3918   5.8154   8.3622   8.4188   9.5309   9.5504

          k = 0.0000 0.0000 0.2780 (  2204 PWs)   bands (ev):

    -7.8268  -6.7410  -2.1970  -0.9709   1.9655   3.3224   3.5825   4.1836
     4.5994   6.2364   8.1745   8.5390   9.4898  10.2520

          k = 0.0000 0.0000-0.3706 (  2208 PWs)   bands (ev):

    -7.3135  -7.3135  -1.6706  -1.6706   2.5501   2.5501   3.8942   3.8942
     5.6319   5.6319   8.4234   8.4234   9.7263   9.7263

          k = 0.1656 0.0515 0.0000 (  2220 PWs)   bands (ev):

    -8.2200  -5.4051  -2.7511   0.6369   1.3187   1.8704   2.5417   3.7806
     4.4531   5.9228   8.0705   8.6997  10.2647  10.4820

          k = 0.1656 0.0515 0.0927 (  2218 PWs)   bands (ev):

    -8.1373  -5.5365  -2.7173   0.3977   1.4166   1.6707   3.0634   3.4096
     4.8939   5.4536   8.3913   8.8174  10.0246  10.5931

          k = 0.1656 0.0515 0.1853 (  2210 PWs)   bands (ev):

    -7.8939  -5.9098  -2.5560  -0.2092   1.5569   1.7521   2.9484   3.9917
     4.6220   5.2732   8.8640   9.1792   9.7998  10.5819

          k = 0.1656 0.0515 0.2780 (  2206 PWs)   bands (ev):

    -7.5048  -6.4381  -2.1976  -0.9509   1.7533   2.1617   2.5929   3.6446
     4.9407   5.3823   8.8714   9.5713  10.3427  10.6146

          k = 0.1656 0.0515-0.3706 (  2206 PWs)   bands (ev):

    -7.0008  -7.0008  -1.6458  -1.6458   2.0844   2.0844   2.8930   2.8930
     5.3396   5.3396   9.1703   9.1703  10.8356  10.8356

          k = 0.3313 0.1031 0.0000 (  2218 PWs)   bands (ev):

    -7.2397  -4.4876  -3.9225  -0.9031   1.2444   1.4240   3.1707   3.8118
     4.4584   5.4685   7.4037   8.6183   8.8518   9.2281

          k = 0.3313 0.1031 0.0927 (  2212 PWs)   bands (ev):

    -7.1628  -4.7093  -3.7036  -0.9939   0.9555   1.5171   3.3318   3.5809
     4.3114   5.4383   7.9111   8.3704   8.9513   9.3214

          k = 0.3313 0.1031 0.1853 (  2208 PWs)   bands (ev):

    -6.9374  -5.1277  -3.2925  -1.2717   0.6530   1.5167   2.8439   3.7457
     4.1333   5.3297   8.1310   8.8640   9.4280  10.1372

          k = 0.3313 0.1031 0.2780 (  2200 PWs)   bands (ev):

    -6.5806  -5.6194  -2.7981  -1.7158   0.6097   1.2488   2.6916   3.4413
     4.2484   5.0290   8.7842   9.4371  10.2067  10.4427

          k = 0.3313 0.1031-0.3706 (  2200 PWs)   bands (ev):

    -6.1246  -6.1246  -2.2532  -2.2532   0.8468   0.8468   2.9874   2.9874
     4.5906   4.5906   9.7764   9.7764  10.0752  10.0752

          k =-0.4969-0.1546 0.0000 (  2200 PWs)   bands (ev):

    -5.7052  -5.7052  -2.9662  -2.9662   1.7486   1.7486   3.7618   3.7618
     4.4355   4.4355   7.8254   7.8254   8.4135   8.4135

          k =-0.4969-0.1546 0.0927 (  2198 PWs)   bands (ev):

    -5.6555  -5.6555  -2.9949  -2.9949   1.6004   1.6004   3.3925   3.3925
     4.7217   4.7217   7.7782   7.7782   9.1211   9.1211

          k =-0.4969-0.1546 0.1853 (  2206 PWs)   bands (ev):

    -5.5244  -5.5244  -3.0859  -3.0859   1.3659   1.3659   2.7717   2.7717
     4.9866   4.9866   8.4086   8.4086   9.5412   9.5412

          k =-0.4969-0.1546 0.2780 (  2212 PWs)   bands (ev):

    -5.3717  -5.3717  -3.2147  -3.2147   1.3340   1.3340   2.1314   2.1314
     5.1347   5.1347   8.8536   8.8536   9.9537   9.9537

          k =-0.4969-0.1546-0.3706 (  2216 PWs)   bands (ev):

    -5.2995  -5.2995  -3.2820  -3.2820   1.5356   1.5356   1.6841   1.6841
     5.1936   5.1936   8.7568   8.7568  10.7238  10.7238

          k = 0.3313 0.0000 0.0000 (  2212 PWs)   bands (ev):

    -7.2790  -4.3803  -3.9008  -0.9807   1.2391   1.2950   3.2401   3.9733
     4.3144   5.5147   7.6286   8.3619   8.7176   8.9929

          k = 0.3313 0.0000 0.0927 (  2218 PWs)   bands (ev):

    -7.2012  -4.6439  -3.6479  -1.0535   1.0298   1.3397   3.5156   3.5747
     4.1766   5.3583   8.1769   8.2410   8.8087   9.0873

          k = 0.3313 0.0000 0.1853 (  2210 PWs)   bands (ev):

    -6.9728  -5.1010  -3.2184  -1.2880   0.7694   1.4352   2.8817   3.6730
     3.9758   5.0992   8.0089   9.3436   9.4772   9.8126

          k = 0.3313 0.0000 0.2780 (  2194 PWs)   bands (ev):

    -6.6100  -5.6203  -2.7234  -1.6873   0.7569   1.3599   2.5399   3.2917
     4.0016   4.7384   8.7362   9.9645  10.2986  10.5643

          k = 0.3313 0.0000-0.3706 (  2198 PWs)   bands (ev):

    -6.1434  -6.1434  -2.1935  -2.1935   1.0099   1.0099   2.7972   2.7972
     4.2960   4.2960   9.8900   9.8900  10.4304  10.4304

          k = 0.4969 0.0515 0.0000 (  2200 PWs)   bands (ev):

    -5.7665  -5.6381  -3.1404  -2.7895   1.6740   1.8093   3.7520   3.7622
     4.1774   4.7516   7.6851   7.8138   8.4594   8.5547

          k = 0.4969 0.0515 0.0927 (  2200 PWs)   bands (ev):

    -5.7140  -5.5918  -3.1514  -2.8380   1.5143   1.6998   3.3083   3.3872
     4.5223   5.0836   7.5173   7.8573   9.0939   9.2049

          k = 0.4969 0.0515 0.1853 (  2206 PWs)   bands (ev):

    -5.5734  -5.4717  -3.1944  -2.9795   1.2321   1.5451   2.5706   2.9249
     4.7005   5.3379   8.0361   8.5618   9.3651   9.8764

          k = 0.4969 0.0515 0.2780 (  2212 PWs)   bands (ev):

    -5.4017  -5.3405  -3.2642  -3.1656   1.1375   1.5764   1.8917   2.3945
     4.8338   5.2871   8.7721   9.1713   9.8320  10.1920

          k = 0.4969 0.0515-0.3706 (  2210 PWs)   bands (ev):

    -5.2997  -5.2997  -3.2810  -3.2810   1.3550   1.3550   1.9095   1.9095
     5.0676   5.0676   9.0314   9.0314  10.7197  10.7197

          k =-0.3313-0.2061 0.0000 (  2202 PWs)   bands (ev):

    -7.1541  -4.7012  -3.9640  -0.7380   1.2410   1.7258   2.9171   3.5245
     4.8608   5.4009   7.2941   8.7474   8.9127   9.4126

          k =-0.3313-0.2061 0.0927 (  2193 PWs)   bands (ev):

    -7.0793  -4.8530  -3.7996  -0.8674   0.8938   1.7383   3.1343   3.4391
     4.7504   5.4841   7.7250   8.5166   9.0964   9.3579

          k =-0.3313-0.2061 0.1853 (  2199 PWs)   bands (ev):

    -6.8607  -5.1900  -3.4297  -1.2368   0.5006   1.4902   2.9472   3.8018
     4.6783   5.5955   8.0625   8.7325   9.3694  10.1925

          k =-0.3313-0.2061 0.2780 (  2205 PWs)   bands (ev):

    -6.5176  -5.6209  -2.9419  -1.7736   0.3928   1.0226   3.0138   3.7066
     4.8751   5.5234   8.4184   9.3145   9.6971  10.2368

          k =-0.3313-0.2061-0.3706 (  2210 PWs)   bands (ev):

    -6.0858  -6.0858  -2.3718  -2.3718   0.5954   0.5954   3.3336   3.3336
     5.2152   5.2152   9.0714   9.0714  10.0712  10.0712

          k =-0.1656-0.1546 0.0000 (  2212 PWs)   bands (ev):

    -8.1459  -5.5938  -2.7297   0.9070   1.2506   1.8676   2.3871   3.6006
     4.7400   6.3321   7.9532   8.7423  10.1464  10.5467

          k =-0.1656-0.1546 0.0927 (  2213 PWs)   bands (ev):

    -8.0648  -5.6881  -2.7468   0.4037   1.4899   1.7319   2.9217   3.4538
     5.0344   5.9691   8.0799   8.9394  10.1102  10.6128

          k =-0.1656-0.1546 0.1853 (  2203 PWs)   bands (ev):

    -7.8266  -5.9820  -2.6915  -0.3873   1.4343   2.1746   2.9905   3.9887
     5.2255   5.4243   8.5331   9.4055   9.6514  10.5446

[...]

          k =-1.0032 0.0000 0.1849 (  2220 PWs)   bands (ev):

    -8.2256  -6.5533  -2.8900  -0.8249   2.7996   2.9239   3.2095   4.5028
     5.7213   6.0808   7.8022   8.4141   8.5312   9.6078

          k =-1.0032 0.0000 0.2773 (  2196 PWs)   bands (ev):

    -7.8580  -6.9271  -2.8181  -1.7169   3.5020   3.5744   3.9533   4.2135
     5.0129   6.0621   8.1237   8.3811   9.0302   9.6886

          k =-1.0032 0.0000-0.3697 (  2204 PWs)   bands (ev):

    -7.3990  -7.3990  -2.4066  -2.4066   3.8570   3.8570   4.2185   4.2185
     5.2022   5.2022   8.4223   8.4223   9.4436   9.4436

     the Fermi energy is     6.9840 ev

!    total energy              =    -222.13933852 Ry
     Harris-Foulkes estimate   =    -222.13933852 Ry
     estimated scf accuracy    <          5.3E-12 Ry

     total all-electron energy =      -222.139339 Ry

     The total energy is the sum of the following terms:

     one-electron contribution =       6.91472290 Ry
     hartree contribution      =       6.68088455 Ry
     xc contribution           =     -17.04214771 Ry
     ewald contribution        =     -50.42493992 Ry
     one-center paw contrib.   =    -168.26784692 Ry
     smearing contrib. (-TS)   =      -0.00001142 Ry

     convergence has been achieved in  10 iterations

     negative rho (up, down):  3.668E-02 0.000E+00

     Forces acting on atoms (cartesian axes, Ry/au):

     atom    1 type  1   force =     0.00000000   -0.00160058    0.00090827
     atom    2 type  1   force =     0.00000000    0.00160058    0.00090827
     atom    3 type  1   force =     0.00000000   -0.00160058   -0.00090827
     atom    4 type  1   force =     0.00000000    0.00160058   -0.00090827

     Total force =     0.003681     Total SCF correction =     0.000005


     Computing stress (Cartesian axis) and pressure


     negative rho (up, down):  3.668E-02 0.000E+00
          total   stress  (Ry/bohr**3)                   (kbar)     P=    4.05
   0.00005680   0.00000000   0.00000000          8.35      0.00      0.00
   0.00000000   0.00001392   0.00000000          0.00      2.05      0.00
   0.00000000   0.00000000   0.00001195          0.00      0.00      1.76


     number of scf cycles    =   8
     number of bfgs steps    =   7

     enthalpy old            =    -222.1392310101 Ry
     enthalpy new            =    -222.1393385173 Ry

     CASE: enthalpy_new < enthalpy_old

     new trust radius        =       0.0317482012 bohr
     new conv_thr            =       0.0000000001 Ry

     new unit-cell volume =    549.06867 a.u.^3 (    81.36358 Ang^3 )
     density =      2.52856 g/cm^3

CELL_PARAMETERS (alat=  6.26600000)
   0.498260675  -1.653524115   0.000000000
   0.498260675   1.653524115   0.000000000
   0.000000000   0.000000000   1.354435573

ATOMIC_POSITIONS (crystal)
P        0.402858384   0.597141616   0.584093169
P        0.097141616   0.902858384   0.084093169
P        0.902858384   0.097141616   0.915906831
P        0.597141616   0.402858384   0.415906831



     Writing output data file relax.save/
     Check: negative starting charge=   -0.025649
     NEW-OLD atomic charge density approx. for the potential

     Check: negative/imaginary core charge=   -0.000006    0.000000
     Check: negative starting charge=   -0.025597

     negative rho (up, down):  3.692E-02 0.000E+00
     extrapolated charge   20.15868, renormalised to   20.00000

     total cpu time spent up to now is       98.9 secs

     Self-consistent Calculation

     iteration #  1     ecut=    40.00 Ry     beta= 0.70
     Davidson diagonalization with overlap
     ethr =  1.00E-06,  avg # of iterations =  4.0

     negative rho (up, down):  3.672E-02 0.000E+00

     total cpu time spent up to now is      101.0 secs

     total energy              =    -222.13855406 Ry
     Harris-Foulkes estimate   =    -222.18840610 Ry
     estimated scf accuracy    <       0.00062557 Ry

     iteration #  2     ecut=    40.00 Ry     beta= 0.70
     Davidson diagonalization with overlap
     ethr =  3.13E-06,  avg # of iterations =  3.2

     negative rho (up, down):  3.672E-02 0.000E+00

     total cpu time spent up to now is      102.2 secs

     total energy              =    -222.13936493 Ry
     Harris-Foulkes estimate   =    -222.14031864 Ry
     estimated scf accuracy    <       0.00277677 Ry

     iteration #  3     ecut=    40.00 Ry     beta= 0.70
     Davidson diagonalization with overlap
     ethr =  3.13E-06,  avg # of iterations =  2.1

     negative rho (up, down):  3.674E-02 0.000E+00

     total cpu time spent up to now is      103.1 secs

     total energy              =    -222.13952317 Ry
     Harris-Foulkes estimate   =    -222.13959763 Ry
     estimated scf accuracy    <       0.00035439 Ry

     iteration #  4     ecut=    40.00 Ry     beta= 0.70
     Davidson diagonalization with overlap
     ethr =  1.77E-06,  avg # of iterations =  1.0

     negative rho (up, down):  3.680E-02 0.000E+00

     total cpu time spent up to now is      103.8 secs

     total energy              =    -222.13943248 Ry
     Harris-Foulkes estimate   =    -222.13953191 Ry
     estimated scf accuracy    <       0.00017040 Ry

     iteration #  5     ecut=    40.00 Ry     beta= 0.70
     Davidson diagonalization with overlap
     ethr =  8.52E-07,  avg # of iterations =  2.0

     negative rho (up, down):  3.679E-02 0.000E+00

     total cpu time spent up to now is      104.6 secs

     total energy              =    -222.13948601 Ry
     Harris-Foulkes estimate   =    -222.13949089 Ry
     estimated scf accuracy    <       0.00001550 Ry

     iteration #  6     ecut=    40.00 Ry     beta= 0.70
     Davidson diagonalization with overlap
     ethr =  7.75E-08,  avg # of iterations =  1.5

     negative rho (up, down):  3.679E-02 0.000E+00

     total cpu time spent up to now is      105.4 secs

     total energy              =    -222.13948571 Ry
     Harris-Foulkes estimate   =    -222.13948727 Ry
     estimated scf accuracy    <       0.00000358 Ry

     iteration #  7     ecut=    40.00 Ry     beta= 0.70
     Davidson diagonalization with overlap
     ethr =  1.79E-08,  avg # of iterations =  2.0

     negative rho (up, down):  3.679E-02 0.000E+00

     total cpu time spent up to now is      106.3 secs

     total energy              =    -222.13948655 Ry
     Harris-Foulkes estimate   =    -222.13948657 Ry
     estimated scf accuracy    <       0.00000004 Ry

     iteration #  8     ecut=    40.00 Ry     beta= 0.70
     Davidson diagonalization with overlap
     ethr =  1.78E-10,  avg # of iterations =  2.1

     negative rho (up, down):  3.679E-02 0.000E+00

     total cpu time spent up to now is      107.1 secs

     total energy              =    -222.13948656 Ry
     Harris-Foulkes estimate   =    -222.13948656 Ry
     estimated scf accuracy    <          2.7E-09 Ry

     iteration #  9     ecut=    40.00 Ry     beta= 0.70
     Davidson diagonalization with overlap
     ethr =  1.33E-11,  avg # of iterations =  3.0

     negative rho (up, down):  3.679E-02 0.000E+00

     total cpu time spent up to now is      108.2 secs

     total energy              =    -222.13948656 Ry
     Harris-Foulkes estimate   =    -222.13948656 Ry
     estimated scf accuracy    <          8.2E-09 Ry

     iteration # 10     ecut=    40.00 Ry     beta= 0.70
     Davidson diagonalization with overlap
     ethr =  1.33E-11,  avg # of iterations =  2.4

     negative rho (up, down):  3.679E-02 0.000E+00

     total cpu time spent up to now is      109.1 secs

     End of self-consistent calculation

          k = 0.0000 0.0000 0.0000 (  2215 PWs)   bands (ev):

    -8.7881  -6.0196  -2.7431   0.1648   1.9312   1.9962   2.9714   4.0814
     4.4648   5.6813   7.5305   8.0362   8.8881   9.7872

          k = 0.0000 0.0000 0.0923 (  2239 PWs)   bands (ev):

    -8.7052  -6.1399  -2.7764   0.0276   1.6484   2.3445   3.0329   4.4288
     4.6331   5.1126   7.9692   8.2900   8.7585   9.6641

          k = 0.0000 0.0000 0.1846 (  2201 PWs)   bands (ev):

    -8.4612  -6.4923  -2.7383  -0.5059   1.5359   3.2100   3.2120   4.1664
     4.3084   5.5710   8.2664   8.3945   9.2770   9.4617

          k = 0.0000 0.0000 0.2769 (  2204 PWs)   bands (ev):

    -8.0713  -7.0080  -2.4689  -1.2607   1.8567   3.2160   3.4779   4.0886
     4.3513   5.9958   8.1597   8.4631   9.4309  10.2146

          k = 0.0000 0.0000-0.3692 (  2208 PWs)   bands (ev):

    -7.5672  -7.5672  -1.9561  -1.9561   2.4451   2.4451   3.7919   3.7919
     5.4009   5.4009   8.3842   8.3842   9.6845   9.6845

          k = 0.1672 0.0504 0.0000 (  2220 PWs)   bands (ev):

    -8.4492  -5.7005  -2.9454   0.4705   1.1840   1.6790   2.2593   3.5366
     4.2355   5.7859   7.8397   8.4859  10.2540  10.4500

          k = 0.1672 0.0504 0.0923 (  2218 PWs)   bands (ev):

    -8.3676  -5.8253  -2.9209   0.1988   1.2927   1.4750   2.8039   3.2023
     4.6632   5.3115   8.2020   8.5802   9.9831  10.5201

          k = 0.1672 0.0504 0.1846 (  2210 PWs)   bands (ev):

    -8.1273  -6.1834  -2.7796  -0.4471   1.3877   1.6228   2.7781   3.7551
     4.4665   5.0762   8.7022   9.0364   9.5981  10.5727

          k = 0.1672 0.0504 0.2769 (  2206 PWs)   bands (ev):

    -7.7436  -6.6965  -2.4390  -1.2035   1.5837   2.0316   2.4388   3.5212
     4.7143   5.2184   8.7896   9.3868  10.2507  10.4148

          k = 0.1672 0.0504-0.3692 (  2206 PWs)   bands (ev):

    -7.2477  -7.2477  -1.8976  -1.8976   1.9170   1.9170   2.7740   2.7740
     5.1632   5.1632   9.0547   9.0547  10.7750  10.7750

          k = 0.3345 0.1008 0.0000 (  2218 PWs)   bands (ev):

    -7.4548  -4.7449  -4.0927  -1.0383   0.9821   1.2460   2.9177   3.5525
     4.2585   5.3133   7.2025   8.4382   8.6397   8.9762

          k = 0.3345 0.1008 0.0923 (  2212 PWs)   bands (ev):

    -7.3786  -4.9518  -3.8887  -1.1366   0.7170   1.3091   3.1075   3.3305
     4.1352   5.2570   7.7038   8.2120   8.7496   9.0464

          k = 0.3345 0.1008 0.1846 (  2208 PWs)   bands (ev):

    -7.1553  -5.3619  -3.4853  -1.4323   0.4188   1.2877   2.6591   3.5493
     3.9830   5.1249   7.9458   8.6613   9.1825   9.8955

          k = 0.3345 0.1008 0.2769 (  2200 PWs)   bands (ev):

    -6.8018  -5.8490  -2.9918  -1.8945   0.3756   1.0052   2.5445   3.2903
     4.0944   4.8464   8.5471   9.2400   9.9612  10.2028

          k = 0.3345 0.1008-0.3692 (  2200 PWs)   bands (ev):

    -6.3499  -6.3499  -2.4429  -2.4429   0.6085   0.6085   2.8470   2.8470
     4.4287   4.4287   9.5421   9.5421   9.8412   9.8412

          k =-0.5017-0.1512 0.0000 (  2200 PWs)   bands (ev):

    -5.8971  -5.8971  -3.1661  -3.1661   1.5080   1.5080   3.5544   3.5544
     4.2570   4.2570   7.5886   7.5886   8.2274   8.2274

          k =-0.5017-0.1512 0.0923 (  2198 PWs)   bands (ev):

    -5.8479  -5.8479  -3.1970  -3.1970   1.3705   1.3705   3.1832   3.1832
     4.5506   4.5506   7.5377   7.5377   8.9181   8.9181

          k =-0.5017-0.1512 0.1846 (  2206 PWs)   bands (ev):

    -5.7178  -5.7178  -3.2931  -3.2931   1.1543   1.1543   2.5669   2.5669
     4.8172   4.8172   8.1514   8.1514   9.3403   9.3403

          k =-0.5017-0.1512 0.2769 (  2212 PWs)   bands (ev):

    -5.5662  -5.5662  -3.4265  -3.4265   1.1337   1.1337   1.9361   1.9361
     4.9565   4.9565   8.6528   8.6528   9.7073   9.7073

          k =-0.5017-0.1512-0.3692 (  2216 PWs)   bands (ev):

    -5.4946  -5.4946  -3.4955  -3.4955   1.3267   1.3267   1.5048   1.5048
     5.0105   5.0105   8.5771   8.5771  10.4659  10.4659

          k = 0.3345 0.0000 0.0000 (  2212 PWs)   bands (ev):

    -7.4859  -4.6600  -4.0766  -1.0998   0.9789   1.1343   2.9954   3.6814
     4.1112   5.3502   7.3722   8.2274   8.5575   8.7976

          k = 0.3345 0.0000 0.0923 (  2218 PWs)   bands (ev):

    -7.4090  -4.8978  -3.8478  -1.1833   0.7703   1.1721   3.2868   3.3065
     3.9925   5.1957   7.9070   8.1141   8.6627   8.8460

          k = 0.3345 0.0000 0.1846 (  2210 PWs)   bands (ev):

    -7.1833  -5.3395  -3.4281  -1.4440   0.5085   1.2353   2.6707   3.5047
     3.8272   4.9362   7.8479   9.0596   9.2086   9.6469

          k = 0.3345 0.0000 0.2769 (  2194 PWs)   bands (ev):

    -6.8250  -5.8491  -2.9329  -1.8706   0.4902   1.0959   2.4134   3.1710
     3.8773   4.6017   8.5191   9.6792  10.0244  10.3454

          k = 0.3345 0.0000-0.3692 (  2198 PWs)   bands (ev):

    -6.3645  -6.3645  -2.3948  -2.3948   0.7350   0.7350   2.6920   2.6920
     4.1761   4.1761   9.6452   9.6452  10.1503  10.1503

          k = 0.5017 0.0504 0.0000 (  2200 PWs)   bands (ev):

    -5.9452  -5.8456  -3.3038  -3.0266   1.4503   1.5565   3.5426   3.5672
     4.0142   4.5370   7.4650   7.5989   8.2447   8.3509

          k = 0.5017 0.0504 0.0923 (  2200 PWs)   bands (ev):

    -5.8937  -5.7989  -3.3203  -3.0732   1.3001   1.4495   3.1282   3.1805
     4.3504   4.8681   7.3101   7.6254   8.9029   8.9783

          k = 0.5017 0.0504 0.1846 (  2206 PWs)   bands (ev):

    -5.7561  -5.6772  -3.3780  -3.2094   1.0419   1.2966   2.4119   2.6901
     4.5576   5.1307   7.8252   8.3104   9.1806   9.6165

          k = 0.5017 0.0504 0.2769 (  2212 PWs)   bands (ev):

    -5.5896  -5.5421  -3.4651  -3.3881   0.9711   1.3259   1.7442   2.1443
     4.7042   5.1065   8.5645   8.9217   9.5950   9.9173

          k = 0.5017 0.0504-0.3692 (  2210 PWs)   bands (ev):

    -5.4946  -5.4946  -3.4949  -3.4949   1.1975   1.1975   1.6641   1.6641
     4.9204   4.9204   8.7949   8.7949  10.4620  10.4620

          k =-0.3345-0.2016 0.0000 (  2202 PWs)   bands (ev):

    -7.3881  -4.9139  -4.1240  -0.9084   0.9790   1.5051   2.6872   3.3190
     4.6315   5.2558   7.1249   8.4496   8.7005   9.1529

          k =-0.3345-0.2016 0.0923 (  2193 PWs)   bands (ev):

    -7.3136  -5.0676  -3.9613  -1.0379   0.6605   1.5015   2.9441   3.2022
     4.5413   5.2963   7.5530   8.2925   8.8082   9.1379

          k =-0.3345-0.2016 0.1846 (  2199 PWs)   bands (ev):

    -7.0956  -5.4123  -3.5925  -1.4071   0.2898   1.2716   2.7552   3.5749
     4.4752   5.3579   7.8711   8.5228   9.1083   9.9879

          k =-0.3345-0.2016 0.2769 (  2205 PWs)   bands (ev):

    -6.7528  -5.8509  -3.1061  -1.9427   0.1967   0.8245   2.8152   3.4978
     4.6505   5.2796   8.2195   9.0898   9.5526   9.9985

          k =-0.3345-0.2016-0.3692 (  2210 PWs)   bands (ev):

    -6.3199  -6.3199  -2.5385  -2.5385   0.4041   0.4041   3.1315   3.1315
     4.9772   4.9772   8.9084   8.9084   9.8259   9.8259

          k =-0.1672-0.1512 0.0000 (  2212 PWs)   bands (ev):

    -8.3909  -5.8501  -2.9268   0.7108   1.1177   1.6724   2.1005   3.4043
     4.5270   6.1435   7.7095   8.4919  10.1565  10.5103

          k =-0.1672-0.1512 0.0923 (  2213 PWs)   bands (ev):

    -8.3105  -5.9460  -2.9435   0.2099   1.3187   1.5570   2.6778   3.2422
     4.8214   5.7566   7.8983   8.6580  10.0818  10.5105

          k =-0.1672-0.1512 0.1846 (  2203 PWs)   bands (ev):

    -8.0743  -6.2417  -2.8881  -0.5924   1.2770   2.0023   2.8204   3.7272
     5.0005   5.2144   8.3746   9.1718   9.4964  10.5259

          k =-0.1672-0.1512 0.2769 (  2210 PWs)   bands (ev):

    -7.6993  -6.7012  -2.6176  -1.4085   1.4805   2.1789   2.8111   4.0491
     4.7889   5.3518   8.9619   9.1827   9.7138  10.3572

          k =-0.1672-0.1512-0.3692 (  2210 PWs)   bands (ev):

    -7.2204  -7.2204  -2.1089  -2.1089   1.8350   1.8350   3.3730   3.3730
     5.2608   5.2608   9.1176   9.1176  10.1170  10.1170

          k = 0.0000-0.1008 0.0000 (  2236 PWs)   bands (ev):

    -8.7550  -6.1065  -2.7222   0.2957   1.7780   1.9357   2.9431   4.1852
     4.5106   5.9757   7.6144   7.9564   8.9649   9.7566

          k = 0.0000-0.1008 0.0923 (  2222 PWs)   bands (ev):

    -8.6728  -6.2101  -2.7886   0.0888   1.5676   2.3687   3.0056   4.4695
     4.6719   5.4293   7.9808   8.2080   8.8196   9.6463

          k = 0.0000-0.1008 0.1846 (  2217 PWs)   bands (ev):

    -8.4310  -6.5263  -2.8135  -0.5910   1.7168   3.1859   3.2077   4.3349
     4.5102   5.5704   8.2172   8.4304   9.0808   9.4712

          k = 0.0000-0.1008 0.2769 (  2207 PWs)   bands (ev):

    -8.0460  -7.0107  -2.5921  -1.4009   2.1619   3.4602   3.5606   4.0973
     4.3365   5.9766   8.1740   8.4379   9.4689   9.9975

          k = 0.0000-0.1008-0.3692 (  2198 PWs)   bands (ev):

    -7.5515  -7.5515  -2.1014  -2.1014   2.7933   2.7933   3.7849   3.7849
     5.3685   5.3685   8.3931   8.3931   9.7445   9.7445

          k = 0.6690 0.0000 0.0000 (  2204 PWs)   bands (ev):

    -7.3522  -4.9987  -4.1391  -0.8392   0.9713   1.6782   2.5166   3.2132
     4.8489   5.2326   7.4067   7.8679   8.7264   9.2774

          k = 0.6690 0.0000 0.0923 (  2199 PWs)   bands (ev):

    -7.2785  -5.1294  -3.9936  -0.9849   0.6367   1.5746   2.9750   3.0377
     4.8432   5.2471   7.8171   7.8606   8.8077   9.1330

          k = 0.6690 0.0000 0.1846 (  2198 PWs)   bands (ev):

    -7.0636  -5.4407  -3.6427  -1.3928   0.2338   1.2353   2.8533   3.5499
     4.8915   5.3414   7.6319   8.7629   8.9199  10.0742

          k = 0.6690 0.0000 0.2769 (  2209 PWs)   bands (ev):

    -6.7268  -5.8531  -3.1617  -1.9668   0.1205   0.7427   2.9598   3.5814
     5.0556   5.4303   7.8585   9.2284   9.4483   9.9280

          k = 0.6690 0.0000-0.3692 (  2218 PWs)   bands (ev):

    -6.3046  -6.3046  -2.5861  -2.5861   0.3181   0.3181   3.2709   3.2709
     5.2847   5.2847   8.5838   8.5838   9.8742   9.8742

          k =-0.1672-0.2520 0.0000 (  2211 PWs)   bands (ev):

    -8.3271  -6.0004  -2.9078   1.0676   1.0767   1.6171   1.7617   3.3419
     5.1281   6.4554   7.2869   8.2651  10.0948  10.5258

          k =-0.1672-0.2520 0.0923 (  2209 PWs)   bands (ev):

    -8.2481  -6.0710  -2.9574   0.1918   1.2408   1.8334   2.4788   3.2500
     5.2852   6.1295   7.5529   8.3504  10.1132  10.6401

          k =-0.1672-0.2520 0.1846 (  2205 PWs)   bands (ev):

    -8.0167  -6.3070  -2.9763  -0.7402   1.1946   2.3201   3.0676   3.5359
     5.4620   5.5802   8.0573   8.8228   9.6237  10.5371

          k =-0.1672-0.2520 0.2769 (  2197 PWs)   bands (ev):

    -7.6518  -6.7092  -2.7729  -1.5992   1.4115   2.1892   3.4262   4.3397
     5.0226   5.5844   8.6327   9.1667   9.3205  10.0265

          k =-0.1672-0.2520-0.3692 (  2194 PWs)   bands (ev):

    -7.1923  -7.1923  -2.2989  -2.2989   1.7845   1.7845   4.0048   4.0048
     5.3793   5.3793   8.9023   8.9023   9.5565   9.5565

          k = 0.0000-0.2016 0.0000 (  2220 PWs)   bands (ev):

    -8.6836  -6.2805  -2.6787   0.6284   1.5082   1.6619   2.8907   4.5987
     4.6735   6.5796   7.3621   7.8289   9.0778   9.6994

          k = 0.0000-0.2016 0.0923 (  2211 PWs)   bands (ev):

    -8.6029  -6.3545  -2.7998   0.1271   1.5926   2.2736   2.9549   4.5469
     5.0068   6.0547   7.7942   7.9220   8.8977   9.6156

          k = 0.0000-0.2016 0.1846 (  2207 PWs)   bands (ev):

    -8.3663  -6.6011  -2.9339  -0.7908   2.2124   3.1040   3.1410   4.3844
     5.2197   5.7249   8.0582   8.3931   8.5873   9.4975

          k = 0.0000-0.2016 0.2769 (  2206 PWs)   bands (ev):

    -7.9922  -7.0194  -2.8028  -1.6619   2.8807   3.4268   4.0592   4.1124
     4.4732   5.9562   8.1947   8.3101   9.2557   9.5521

          k = 0.0000-0.2016-0.3692 (  2200 PWs)   bands (ev):

    -7.5193  -7.5193  -2.3588  -2.3588   3.5747   3.5747   3.7710   3.7710
     5.2488   5.2488   8.3846   8.3846   9.8701   9.8701

          k =-1.0035 0.0000 0.0000 (  2202 PWs)   bands (ev):

    -8.6448  -6.3683  -2.6561   0.9296   1.3610   1.3863   2.8661   4.6412
     5.1822   6.8522   6.9066   7.7752   9.1167   9.6725

          k =-1.0035 0.0000 0.0923 (  2196 PWs)   bands (ev):

    -8.5650  -6.4291  -2.7998   0.1047   1.7566   2.0895   2.9313   4.5841
     5.4396   6.2850   7.3764   7.8802   8.9155   9.6026

          k =-1.0035 0.0000 0.1846 (  2220 PWs)   bands (ev):

    -8.3314  -6.6422  -2.9818  -0.8961   2.7061   2.8070   3.1200   4.4075
     5.5961   5.9742   7.7249   8.3174   8.4410   9.5140

          k =-1.0035 0.0000 0.2769 (  2196 PWs)   bands (ev):
