{
    "directories":
        {
            "elem_template_dir": "/home/szymansk/Elem_Templates",
            "cmpd_template_dir": "/home/szymansk/Optimization_Sets/Ca/Input"
        },
    "compounds": [
        {
            "formula": "Ca",
            "lattice_type": "BCC",
            "phonon_frequency": [0.0,0.0,0.0,4.89,4.89,4.89]
        },
        {
            "formula": "CaS",
            "lattice_type": "ZB",
            "eos": [31.36946, 38.98093, 3.972]
        },
        {
            "formula": "CaS",
            "lattice_type": "RS",
            "lattice_constant": 5.717,
            "band_gap": 2.39
        },
        {
            "formula": "CaTiO3",
            "lattice_type": "per",
            "lattice_constant": 3.886
        }
    ]
}
