{
    "directories": [
        {
            "elem_template_dir": "/home/szymansk/Elem_Templates",
            "cmpd_template_dir": "/home/szymansk/Optimization_Sets/P/Input"
        }
    ],
    "compounds": [
        {
            "formula": "AlP",
            "lattice_type": "RS",
            "lattice_constant": 5.075,
            "phonon_frequency": [0.0,0.0,0.0,6.64,6.64,6.64]
        },
        {
            "formula": "GaP",
            "lattice_type": "ZB",
            "eos": [20.87406, 77.1448, 4.303],
            "band_gap": 1.57
        },
        {
            "formula": "LiCaP",
            "lattice_type": "HH",
            "lattice_constant": 6.497
        }
    ]
}
