===== VARIABLES =====
EXE_PATH = /scr/szymansk/2019-3/qe-bin/bin/pw.x
tpp = 4
Parallel keywords = -nimage 1
MPIRUN_EXE = orterun
PATH = /scr/szymansk/2019-3/mmshare-v4.7/lib/Linux-x86_64/openmpi/bin:/scr/szymansk/2019-3/internal/bin:/scr/szymansk/2019-3/mmshare-v4.7/bin/Linux-x86_64:/scr/szymansk/gaopaw/Examples/Si/workdir_pp.3:.:/scr/szymansk/gaopaw/Examples/Si:/scr/szymansk/gaopaw/scripts:/home/szymansk/bin:/scr/szymansk/dakota/bin:/scr/szymansk/atompaw-4.1.0.5/src/:/usr/lib64/qt-3.3/bin:/usr/local/bin:/usr/local/sbin:/usr/bin:/usr/sbin:/bin:/sbin
LD_LIBRARY_PATH = /scr/szymansk/2019-3/mmshare-v4.7/lib/Linux-x86_64/openmpi/lib:/scr/szymansk/2019-3/internal/lib/ssl:/scr/szymansk/2019-3/internal/lib:/scr/szymansk/2019-3/mmshare-v4.7/lib/Linux-x86_64:/scr/szymansk/2019-3/internal/lib/python3.6/site-packages:/scr/szymansk/dakota/bin:/software/lib/Linux-x86_64/ifort_2017.1.132/mkl/lib/intel64
===== END VARIABLES =====
Invoking: exe_cmd () 
{ 
    "$MPIRUN_EXE" -np $tpp "$EXE_PATH" -in $input_file "${P_KEYWORDS[@]}"
}

     Program PWSCF v.6.3MaX starts on 31Jul2019 at 17:30:32 

     This program is part of the open-source Quantum ESPRESSO suite
     for quantum simulation of materials; please cite
         "P. Giannozzi et al., J. Phys.:Condens. Matter 21 395502 (2009);
         "P. Giannozzi et al., J. Phys.:Condens. Matter 29 465901 (2017);
          URL http://www.quantum-espresso.org", 
     in publications or presentations arising from this work. More details at
     http://www.quantum-espresso.org/quote

     Parallel version (MPI), running on     4 processors

     MPI processes distributed on     1 nodes
     R & G space division:  proc/nbgrp/npool/nimage =       4
     Reading input from O.BCC.relax.in

     Current dimensions of program PWSCF are:
     Max number of different atomic species (ntypx) = 10
     Max number of k-points (npk) =  40000
     Max angular momentum in pseudopotentials (lmaxx) =  3
               file O.GGA-PBE-paw.UPF: wavefunction(s)  Xn Xn Xn renormalized

     Subspace diagonalization in iterative solution of the eigenvalue problem:
     a serial algorithm will be used

 
     Parallelization info
     --------------------
     sticks:   dense  smooth     PW     G-vecs:    dense   smooth      PW
     Min          65      51     17                  646      466      95
     Max          66      52     18                  647      467      96
     Sum         261     205     69                 2587     1865     381
 


     bravais-lattice index     =            3
     lattice parameter (alat)  =       4.7450  a.u.
     unit-cell volume          =      53.4169 (a.u.)^3
     number of atoms/cell      =            1
     number of atomic types    =            1
     number of electrons       =         6.00
     number of Kohn-Sham states=            7
     kinetic-energy cutoff     =      40.0000  Ry
     charge density cutoff     =     200.0000  Ry
     convergence threshold     =      1.0E-08
     mixing beta               =       0.7000
     number of iterations used =            8  plain     mixing
     Exchange-correlation      = SLA PW PBX PBC ( 1  4  3  4 0 0)
     nstep                     =           50


     celldm(1)=   4.745000  celldm(2)=   0.000000  celldm(3)=   0.000000
     celldm(4)=   0.000000  celldm(5)=   0.000000  celldm(6)=   0.000000

     crystal axes: (cart. coord. in units of alat)
               a(1) = (   0.500000   0.500000   0.500000 )  
               a(2) = (  -0.500000   0.500000   0.500000 )  
               a(3) = (  -0.500000  -0.500000   0.500000 )  

     reciprocal axes: (cart. coord. in units 2 pi/alat)
               b(1) = (  1.000000  0.000000  1.000000 )  
               b(2) = ( -1.000000  1.000000  0.000000 )  
               b(3) = (  0.000000 -1.000000  1.000000 )  


     PseudoPot. # 1 for O  read from file:
     ./O.GGA-PBE-paw.UPF
     MD5 check sum: 3d3bcd24ff459d4dba01a425ce462d30
     Pseudo is Projector augmented-wave + core cor, Zval =  6.0
     Generated using ATOMPAW code
     Shape of augmentation charge: SINC**2
     Using radial grid of 2342 points,  4 beta functions with: 
                l(1) =   0
                l(2) =   0
                l(3) =   1
                l(4) =   1
     Q(r) pseudized with 0 coefficients 


     atomic species   valence    mass     pseudopotential
        O              6.00    15.99940     O ( 1.00)

     48 Sym. Ops., with inversion, found



   Cartesian axes

     site n.     atom                  positions (alat units)
         1           O   tau(   1) = (   0.0000000   0.0000000   0.0000000  )

     number of k points=    29  Fermi-Dirac smearing, width (Ry)=  0.0020
                       cart. coord. in units 2pi/alat
        k(    1) = (   0.0000000   0.0000000   0.0000000), wk =   0.0039062
        k(    2) = (   0.0000000  -0.1250000   0.1250000), wk =   0.0468750
        k(    3) = (   0.0000000  -0.2500000   0.2500000), wk =   0.0468750
        k(    4) = (   0.0000000  -0.3750000   0.3750000), wk =   0.0468750
        k(    5) = (   0.0000000   0.5000000  -0.5000000), wk =   0.0234375
        k(    6) = (  -0.1250000  -0.1250000   0.2500000), wk =   0.0937500
        k(    7) = (  -0.1250000  -0.2500000   0.3750000), wk =   0.1875000
        k(    8) = (  -0.1250000   0.6250000  -0.5000000), wk =   0.1875000
        k(    9) = (  -0.2500000   0.7500000  -0.5000000), wk =   0.0937500
        k(   10) = (  -0.2500000   0.6250000  -0.3750000), wk =   0.0937500
        k(   11) = (   0.0000000   0.0000000   0.2500000), wk =   0.0234375
        k(   12) = (   0.0000000  -0.1250000   0.3750000), wk =   0.0937500
        k(   13) = (   0.0000000  -0.2500000   0.5000000), wk =   0.0937500
        k(   14) = (   0.0000000   0.6250000  -0.3750000), wk =   0.0468750
        k(   15) = (  -0.1250000  -0.1250000   0.5000000), wk =   0.0937500
        k(   16) = (  -0.1250000   0.7500000  -0.3750000), wk =   0.1875000
        k(   17) = (  -0.2500000   0.2500000   0.2500000), wk =   0.0312500
        k(   18) = (  -0.2500000   0.7500000  -0.2500000), wk =   0.0312500
        k(   19) = (   0.6250000  -0.6250000   0.2500000), wk =   0.0937500
        k(   20) = (   0.5000000  -0.5000000   0.2500000), wk =   0.0468750
        k(   21) = (   0.5000000  -0.6250000   0.3750000), wk =   0.0937500
        k(   22) = (   0.0000000   0.0000000   0.5000000), wk =   0.0234375
        k(   23) = (   0.0000000  -0.1250000   0.6250000), wk =   0.0937500
        k(   24) = (   0.0000000   0.7500000  -0.2500000), wk =   0.0468750
        k(   25) = (  -0.1250000   0.8750000  -0.2500000), wk =   0.0937500
        k(   26) = (   0.5000000  -0.5000000   0.5000000), wk =   0.0078125
        k(   27) = (   0.0000000   0.0000000   0.7500000), wk =   0.0234375
        k(   28) = (   0.0000000   0.8750000  -0.1250000), wk =   0.0468750
        k(   29) = (   0.0000000   0.0000000  -1.0000000), wk =   0.0039062

     Dense  grid:     2587 G-vectors     FFT dimensions: (  20,  20,  20)

     Smooth grid:     1865 G-vectors     FFT dimensions: (  18,  18,  18)

     Estimated max dynamical RAM per process >       1.58 MB

     Estimated total dynamical RAM >       6.32 MB

     Initial potential from superposition of free atoms

     starting charge    6.00000, renormalised to    6.00000
     Starting wfcs are    8 randomized atomic wfcs
     Checking if some PAW data can be deallocated... 

     total cpu time spent up to now is        0.6 secs

     Self-consistent Calculation

     iteration #  1     ecut=    40.00 Ry     beta= 0.70
     Davidson diagonalization with overlap
     ethr =  1.00E-02,  avg # of iterations =  4.7

     Threshold (ethr) on eigenvalues was too large:
     Diagonalizing with lowered threshold

     Davidson diagonalization with overlap
     ethr =  3.63E-06,  avg # of iterations =  3.2

     total cpu time spent up to now is        0.8 secs

     total energy              =     -41.33480465 Ry
     Harris-Foulkes estimate   =     -41.33468211 Ry
     estimated scf accuracy    <       0.00021607 Ry

     iteration #  2     ecut=    40.00 Ry     beta= 0.70
     Davidson diagonalization with overlap
     ethr =  3.60E-06,  avg # of iterations =  1.9

     total cpu time spent up to now is        0.8 secs

     total energy              =     -41.33490100 Ry
     Harris-Foulkes estimate   =     -41.33487963 Ry
     estimated scf accuracy    <       0.00003913 Ry

     iteration #  3     ecut=    40.00 Ry     beta= 0.70
     Davidson diagonalization with overlap
     ethr =  6.52E-07,  avg # of iterations =  1.1

     total cpu time spent up to now is        0.9 secs

     total energy              =     -41.33491173 Ry
     Harris-Foulkes estimate   =     -41.33490415 Ry
     estimated scf accuracy    <       0.00000336 Ry

     iteration #  4     ecut=    40.00 Ry     beta= 0.70
     Davidson diagonalization with overlap
     ethr =  5.61E-08,  avg # of iterations =  2.0

     total cpu time spent up to now is        0.9 secs

     End of self-consistent calculation

          k = 0.0000 0.0000 0.0000 (   225 PWs)   bands (ev):

   -16.1700   6.8770   6.8770   6.8770  23.4569  41.0284  41.0284

          k = 0.0000-0.1250 0.1250 (   223 PWs)   bands (ev):

   -15.6961   5.7079   6.5511   6.8290  24.3026  36.8531  38.1994

          k = 0.0000-0.2500 0.2500 (   227 PWs)   bands (ev):

   -14.3713   2.9380   5.8157   6.7084  25.7368  32.0363  34.8430

          k = 0.0000-0.3750 0.3750 (   233 PWs)   bands (ev):

   -12.6111  -0.0653   5.1441   6.5800  25.4759  30.9998  32.7215

          k = 0.0000 0.5000-0.5000 (   234 PWs)   bands (ev):

   -11.6224  -1.5299   4.8805   6.5245  24.8626  31.3800  32.0054

          k =-0.1250-0.1250 0.2500 (   223 PWs)   bands (ev):

   -14.7941   3.9131   6.0341   6.5334  25.5637  33.2376  34.9702

          k =-0.1250-0.2500 0.3750 (   231 PWs)   bands (ev):

   -13.2199   1.3532   4.9825   6.3020  26.5985  30.4638  32.8341

          k =-0.1250 0.6250-0.5000 (   226 PWs)   bands (ev):

   -11.7086  -0.8203   4.2658   6.1630  25.9392  30.7494  31.7373

          k =-0.2500 0.7500-0.5000 (   224 PWs)   bands (ev):

   -11.7912   0.2192   3.1745   5.9632  27.9554  28.9929  31.5196

          k =-0.2500 0.6250-0.3750 (   227 PWs)   bands (ev):

   -11.0659  -0.1558   2.1397   5.8570  27.8593  30.0080  30.2646

          k = 0.0000 0.0000 0.2500 (   217 PWs)   bands (ev):

   -15.2328   5.2924   6.1983   6.1983  25.0190  35.7546  37.7942

          k = 0.0000-0.1250 0.3750 (   224 PWs)   bands (ev):

   -13.9428   3.0045   5.4065   5.9351  26.3343  31.1422  35.7419

          k = 0.0000-0.2500 0.5000 (   223 PWs)   bands (ev):

   -12.2461   0.2540   4.6884   5.8527  26.1477  29.8112  34.0042

          k = 0.0000 0.6250-0.3750 (   232 PWs)   bands (ev):

   -11.3080  -1.1001   4.4080   5.8162  25.4761  30.2341  33.3831

          k =-0.1250-0.1250 0.5000 (   232 PWs)   bands (ev):

   -12.4822   1.3954   4.0880   5.6412  27.3101  28.5118  34.4319

          k =-0.1250 0.7500-0.3750 (   229 PWs)   bands (ev):

   -11.1287  -0.1028   3.0287   5.6385  26.6309  28.6930  32.9523

          k =-0.2500 0.2500 0.2500 (   222 PWs)   bands (ev):

   -13.5892   1.9772   5.6420   5.6420  27.0580  31.3875  31.3875

          k =-0.2500 0.7500-0.2500 (   234 PWs)   bands (ev):

   -10.6151   0.9243   0.9243   5.7018  27.7540  27.7540  31.5001

          k = 0.6250-0.6250 0.2500 (   229 PWs)   bands (ev):

   -12.0613   0.2613   4.0951   5.2530  27.7974  30.2797  30.5690

          k = 0.5000-0.5000 0.2500 (   228 PWs)   bands (ev):

   -11.2614  -0.5602   3.3908   5.0933  27.3846  30.3569  30.8507

          k = 0.5000-0.6250 0.3750 (   228 PWs)   bands (ev):

   -11.1178   0.3873   2.3530   4.3865  29.1133  29.6345  30.3210

          k = 0.0000 0.0000 0.5000 (   233 PWs)   bands (ev):

   -12.7652   2.7184   4.5011   4.5011  27.1259  28.3843  36.9748

          k = 0.0000-0.1250 0.6250 (   227 PWs)   bands (ev):

   -11.2663   1.0602   3.6937   4.2169  26.0497  27.2738  36.9333

          k = 0.0000 0.7500-0.2500 (   232 PWs)   bands (ev):

   -10.4763   0.0578   3.3815   4.2525  25.3139  27.2219  36.7191

          k =-0.1250 0.8750-0.2500 (   229 PWs)   bands (ev):

   -10.2213   0.9036   2.2039   4.2465  25.1452  26.0485  35.7983

          k = 0.5000-0.5000 0.5000 (   240 PWs)   bands (ev):

   -10.8574   2.0348   2.0348   2.0348  29.9388  29.9388  29.9388

          k = 0.0000 0.0000 0.7500 (   229 PWs)   bands (ev):

   -10.0847   1.7250   2.8170   2.8170  23.9468  25.2945  39.2877

          k = 0.0000 0.8750-0.1250 (   236 PWs)   bands (ev):

    -9.5032   1.4539   2.4810   2.7655  23.4182  23.9234  39.4483

          k = 0.0000 0.0000-1.0000 (   236 PWs)   bands (ev):

    -9.0400   2.1370   2.1370   2.1370  22.4664  22.4664  41.1951

     the Fermi energy is     5.0940 ev

!    total energy              =     -41.33491236 Ry
     Harris-Foulkes estimate   =     -41.33491235 Ry
     estimated scf accuracy    <          9.1E-09 Ry

     total all-electron energy =       -41.334912 Ry

     The total energy is the sum of the following terms:

     one-electron contribution =      -2.08955295 Ry
     hartree contribution      =       4.94028930 Ry
     xc contribution           =      -6.60439313 Ry
     ewald contribution        =     -27.61062265 Ry
     one-center paw contrib.   =      -9.97049511 Ry
     smearing contrib. (-TS)   =      -0.00013782 Ry

     convergence has been achieved in   4 iterations

     Forces acting on atoms (cartesian axes, Ry/au):

     atom    1 type  1   force =     0.00000000    0.00000000    0.00000000

     Total force =     0.000000     Total SCF correction =     0.000000


     Computing stress (Cartesian axis) and pressure

          total   stress  (Ry/bohr**3)                   (kbar)     P=  -44.60
  -0.00030319   0.00000000   0.00000000        -44.60      0.00      0.00
   0.00000000  -0.00030319   0.00000000          0.00    -44.60      0.00
   0.00000000   0.00000000  -0.00030319          0.00      0.00    -44.60


     BFGS Geometry Optimization

     number of scf cycles    =   1
     number of bfgs steps    =   0

     enthalpy new            =     -41.3349123609 Ry

     new trust radius        =       0.0110794972 bohr
     new conv_thr            =       0.0000000100 Ry

     new unit-cell volume =     52.21143 a.u.^3 (     7.73694 Ang^3 )
     density =      3.43387 g/cm^3

CELL_PARAMETERS (alat=  4.74500000)
   0.496210161   0.496210161   0.496210161
  -0.496210161   0.496210161   0.496210161
  -0.496210161  -0.496210161   0.496210161

ATOMIC_POSITIONS (alat)
O        0.000000000   0.000000000   0.000000000



     Writing output data file relax.save/
     NEW-OLD atomic charge density approx. for the potential
     extrapolated charge    5.86147, renormalised to    6.00000

     total cpu time spent up to now is        1.1 secs

     Self-consistent Calculation

     iteration #  1     ecut=    40.00 Ry     beta= 0.70
     Davidson diagonalization with overlap
     ethr =  1.00E-06,  avg # of iterations =  3.0

     total cpu time spent up to now is        1.1 secs

     total energy              =     -41.33207463 Ry
     Harris-Foulkes estimate   =     -41.35484682 Ry
     estimated scf accuracy    <       0.00198200 Ry

     iteration #  2     ecut=    40.00 Ry     beta= 0.70
     Davidson diagonalization with overlap
     ethr =  3.30E-05,  avg # of iterations =  2.1

     total cpu time spent up to now is        1.2 secs

     total energy              =     -41.33516880 Ry
     Harris-Foulkes estimate   =     -41.33634697 Ry
     estimated scf accuracy    <       0.00256869 Ry

     iteration #  3     ecut=    40.00 Ry     beta= 0.70
     Davidson diagonalization with overlap
     ethr =  3.30E-05,  avg # of iterations =  1.0

     total cpu time spent up to now is        1.2 secs

     total energy              =     -41.33511963 Ry
     Harris-Foulkes estimate   =     -41.33534041 Ry
     estimated scf accuracy    <       0.00046130 Ry

     iteration #  4     ecut=    40.00 Ry     beta= 0.70
     Davidson diagonalization with overlap
     ethr =  7.69E-06,  avg # of iterations =  1.1

     total cpu time spent up to now is        1.3 secs

     total energy              =     -41.33512433 Ry
     Harris-Foulkes estimate   =     -41.33515667 Ry
     estimated scf accuracy    <       0.00007329 Ry

     iteration #  5     ecut=    40.00 Ry     beta= 0.70
     Davidson diagonalization with overlap
     ethr =  1.22E-06,  avg # of iterations =  1.0

     total cpu time spent up to now is        1.3 secs

     total energy              =     -41.33511680 Ry
     Harris-Foulkes estimate   =     -41.33512870 Ry
     estimated scf accuracy    <       0.00001798 Ry

     iteration #  6     ecut=    40.00 Ry     beta= 0.70
     Davidson diagonalization with overlap
     ethr =  3.00E-07,  avg # of iterations =  1.4

     total cpu time spent up to now is        1.4 secs

     total energy              =     -41.33511900 Ry
     Harris-Foulkes estimate   =     -41.33511942 Ry
     estimated scf accuracy    <       0.00000048 Ry

     iteration #  7     ecut=    40.00 Ry     beta= 0.70
     Davidson diagonalization with overlap
     ethr =  8.08E-09,  avg # of iterations =  1.9

     total cpu time spent up to now is        1.4 secs

     End of self-consistent calculation

          k = 0.0000 0.0000 0.0000 (   225 PWs)   bands (ev):

   -16.0608   7.2964   7.2964   7.2964  24.2232  41.6903  41.6903

          k = 0.0000-0.1260 0.1260 (   223 PWs)   bands (ev):

   -15.5725   6.1015   6.9589   7.2462  25.0675  37.4587  38.8156

          k = 0.0000-0.2519 0.2519 (   227 PWs)   bands (ev):

   -14.2034   3.2594   6.1989   7.1200  26.4584  32.6242  35.4067

          k = 0.0000-0.3779 0.3779 (   233 PWs)   bands (ev):

   -12.3700   0.1543   5.5061   6.9860  26.0494  31.7093  33.2523

          k = 0.0000 0.5038-0.5038 (   234 PWs)   bands (ev):

   -11.3265  -1.3772   5.2347   6.9282  25.3905  32.1288  32.5251

          k =-0.1260-0.1260 0.2519 (   223 PWs)   bands (ev):

   -14.6411   4.2639   6.4220   6.9401  26.3194  33.7995  35.5534

          k =-0.1260-0.2519 0.3779 (   231 PWs)   bands (ev):

   -13.0073   1.6265   5.3341   6.6994  27.2702  31.0660  33.4037

          k =-0.1260 0.6298-0.5038 (   226 PWs)   bands (ev):

   -11.4209  -0.6399   4.5958   6.5541  26.4969  31.4481  32.3023

          k =-0.2519 0.7557-0.5038 (   224 PWs)   bands (ev):

   -11.5110   0.4416   3.4612   6.3483  28.6041  29.5654  32.1385

          k =-0.2519 0.6298-0.3779 (   227 PWs)   bands (ev):

   -10.7432   0.0325   2.3966   6.2381  28.4457  30.6862  30.8397

          k = 0.0000 0.0000 0.2519 (   217 PWs)   bands (ev):

   -15.0947   5.6831   6.5932   6.5932  25.7814  36.3306  38.4236

          k = 0.0000-0.1260 0.3779 (   224 PWs)   bands (ev):

   -13.7603   3.3311   5.7748   6.3236  27.0646  31.6794  36.3434

          k = 0.0000-0.2519 0.5038 (   223 PWs)   bands (ev):

   -11.9912   0.4820   5.0340   6.2381  26.7218  30.4638  34.5771

          k = 0.0000 0.6298-0.3779 (   232 PWs)   bands (ev):

   -11.0003  -0.9358   4.7452   6.2004  26.0034  30.9259  33.9458

          k =-0.1260-0.1260 0.5038 (   232 PWs)   bands (ev):

   -12.2409   1.6690   4.4095   6.0225  28.0008  29.0142  35.0510

          k =-0.1260 0.7557-0.3779 (   229 PWs)   bands (ev):

   -10.8173   0.0970   3.3174   6.0203  27.1676  29.3170  33.5546

          k =-0.2519 0.2519 0.2519 (   222 PWs)   bands (ev):

   -13.3914   2.2739   6.0128   6.0128  27.8070  31.9438  31.9438

          k =-0.2519 0.7557-0.2519 (   234 PWs)   bands (ev):

   -10.2745   1.1449   1.1449   6.0868  28.3207  28.3207  32.1004

          k = 0.6298-0.6298 0.2519 (   229 PWs)   bands (ev):

   -11.7934   0.4881   4.4130   5.6077  28.4387  30.9462  31.1315

          k = 0.5038-0.5038 0.2519 (   228 PWs)   bands (ev):

   -10.9470  -0.3834   3.6897   5.4416  27.9767  30.9234  31.5716

          k = 0.5038-0.6298 0.3779 (   228 PWs)   bands (ev):

   -10.7964   0.5948   2.6116   4.7110  29.7309  30.2620  30.9863

          k = 0.0000 0.0000 0.5038 (   233 PWs)   bands (ev):

   -12.5386   3.0453   4.8393   4.8393  27.8298  28.8469  37.6413

          k = 0.0000-0.1260 0.6298 (   227 PWs)   bands (ev):

   -10.9708   1.3112   4.0066   4.5537  26.5100  27.8819  37.6102

          k = 0.0000 0.7557-0.2519 (   232 PWs)   bands (ev):

   -10.1347   0.2550   3.6852   4.5928  25.7853  27.7774  37.3917

          k =-0.1260 0.8817-0.2519 (   229 PWs)   bands (ev):

    -9.8692   1.1314   2.4672   4.5868  25.5918  26.5666  36.4938

          k = 0.5038-0.5038 0.5038 (   240 PWs)   bands (ev):

   -10.5200   2.2832   2.2832   2.2832  30.5875  30.5875  30.5875

          k = 0.0000 0.0000 0.7557 (   229 PWs)   bands (ev):

    -9.7311   1.9932   3.1033   3.1033  24.3412  25.7942  40.0585

          k = 0.0000 0.8817-0.1260 (   236 PWs)   bands (ev):

    -9.1154   1.6959   2.7576   3.0572  23.8164  24.3493  40.2489

          k = 0.0000 0.0000-1.0076 (   236 PWs)   bands (ev):

    -8.6268   2.4038   2.4038   2.4038  22.8380  22.8380  42.0443

     the Fermi energy is     5.4462 ev

!    total energy              =     -41.33511914 Ry
     Harris-Foulkes estimate   =     -41.33511914 Ry
     estimated scf accuracy    <          1.2E-09 Ry

     total all-electron energy =       -41.335119 Ry

     The total energy is the sum of the following terms:

     one-electron contribution =      -1.78211360 Ry
     hartree contribution      =       4.85377794 Ry
     xc contribution           =      -6.61448470 Ry
     ewald contribution        =     -27.82150064 Ry
     one-center paw contrib.   =      -9.97066858 Ry
     smearing contrib. (-TS)   =      -0.00012956 Ry

     convergence has been achieved in   7 iterations

     Forces acting on atoms (cartesian axes, Ry/au):

     atom    1 type  1   force =     0.00000000    0.00000000    0.00000000

     Total force =     0.000000     Total SCF correction =     0.000000


     Computing stress (Cartesian axis) and pressure

          total   stress  (Ry/bohr**3)                   (kbar)     P=   -6.03
  -0.00004096   0.00000000  -0.00000000         -6.03      0.00     -0.00
   0.00000000  -0.00004096   0.00000000          0.00     -6.03      0.00
  -0.00000000   0.00000000  -0.00004096         -0.00      0.00     -6.03


     number of scf cycles    =   2
     number of bfgs steps    =   1

     enthalpy old            =     -41.3349123609 Ry
     enthalpy new            =     -41.3351191435 Ry

     CASE: enthalpy_new < enthalpy_old

     new trust radius        =       0.0016940530 bohr
     new conv_thr            =            1.0E-10 Ry

     new unit-cell volume =     52.02803 a.u.^3 (     7.70976 Ang^3 )
     density =      3.44597 g/cm^3

CELL_PARAMETERS (alat=  4.74500000)
   0.495628487   0.495628487   0.495628487
  -0.495628487   0.495628487   0.495628487
  -0.495628487  -0.495628487   0.495628487

ATOMIC_POSITIONS (alat)
O        0.000000000   0.000000000   0.000000000



     Writing output data file relax.save/
     NEW-OLD atomic charge density approx. for the potential
     extrapolated charge    5.97885, renormalised to    6.00000

     total cpu time spent up to now is        1.6 secs

     Self-consistent Calculation

     iteration #  1     ecut=    40.00 Ry     beta= 0.70
     Davidson diagonalization with overlap
     ethr =  1.00E-06,  avg # of iterations =  2.0

     total cpu time spent up to now is        1.6 secs

     total energy              =     -41.33505222 Ry
     Harris-Foulkes estimate   =     -41.33800485 Ry
     estimated scf accuracy    <       0.00004454 Ry

     iteration #  2     ecut=    40.00 Ry     beta= 0.70
     Davidson diagonalization with overlap
     ethr =  7.42E-07,  avg # of iterations =  2.1

     total cpu time spent up to now is        1.7 secs

     total energy              =     -41.33512368 Ry
     Harris-Foulkes estimate   =     -41.33515084 Ry
     estimated scf accuracy    <       0.00005964 Ry

     iteration #  3     ecut=    40.00 Ry     beta= 0.70
     Davidson diagonalization with overlap
     ethr =  7.42E-07,  avg # of iterations =  1.0

     total cpu time spent up to now is        1.8 secs

     total energy              =     -41.33512221 Ry
     Harris-Foulkes estimate   =     -41.33512760 Ry
     estimated scf accuracy    <       0.00001098 Ry

     iteration #  4     ecut=    40.00 Ry     beta= 0.70
     Davidson diagonalization with overlap
     ethr =  1.83E-07,  avg # of iterations =  1.1

     total cpu time spent up to now is        1.8 secs

     total energy              =     -41.33512244 Ry
     Harris-Foulkes estimate   =     -41.33512314 Ry
     estimated scf accuracy    <       0.00000158 Ry

     iteration #  5     ecut=    40.00 Ry     beta= 0.70
     Davidson diagonalization with overlap
     ethr =  2.64E-08,  avg # of iterations =  1.0

     total cpu time spent up to now is        1.9 secs

     total energy              =     -41.33512227 Ry
     Harris-Foulkes estimate   =     -41.33512254 Ry
     estimated scf accuracy    <       0.00000038 Ry

     iteration #  6     ecut=    40.00 Ry     beta= 0.70
     Davidson diagonalization with overlap
     ethr =  6.29E-09,  avg # of iterations =  1.6

     total cpu time spent up to now is        1.9 secs

     total energy              =     -41.33512234 Ry
     Harris-Foulkes estimate   =     -41.33512234 Ry
     estimated scf accuracy    <          2.9E-09 Ry

     iteration #  7     ecut=    40.00 Ry     beta= 0.70
     Davidson diagonalization with overlap
     ethr =  4.80E-11,  avg # of iterations =  1.8

     total cpu time spent up to now is        2.0 secs

     total energy              =     -41.33512234 Ry
     Harris-Foulkes estimate   =     -41.33512234 Ry
     estimated scf accuracy    <          1.5E-09 Ry

     iteration #  8     ecut=    40.00 Ry     beta= 0.70
     Davidson diagonalization with overlap
     ethr =  2.55E-11,  avg # of iterations =  1.9

     total cpu time spent up to now is        2.0 secs

     End of self-consistent calculation

          k = 0.0000 0.0000 0.0000 (   225 PWs)   bands (ev):

   -16.0440   7.3617   7.3617   7.3617  24.3431  41.7935  41.7935

          k = 0.0000-0.1261 0.1261 (   223 PWs)   bands (ev):

   -15.5534   6.1628   7.0224   7.3111  25.1871  37.5530  38.9116

          k = 0.0000-0.2522 0.2522 (   227 PWs)   bands (ev):

   -14.1775   3.3095   6.2586   7.1841  26.5708  32.7160  35.4945

          k = 0.0000-0.3783 0.3783 (   233 PWs)   bands (ev):

   -12.3326   0.1886   5.5624   7.0492  26.1386  31.8201  33.3351

          k = 0.0000 0.5044-0.5044 (   234 PWs)   bands (ev):

   -11.2804  -1.3535   5.2898   6.9910  25.4729  32.2455  32.6062

          k =-0.1261-0.1261 0.2522 (   223 PWs)   bands (ev):

   -14.6175   4.3186   6.4824   7.0034  26.4374  33.8870  35.6442

          k =-0.1261-0.2522 0.3783 (   231 PWs)   bands (ev):

   -12.9744   1.6691   5.3889   6.7612  27.3746  31.1601  33.4926

          k =-0.1261 0.6305-0.5044 (   226 PWs)   bands (ev):

   -11.3762  -0.6118   4.6472   6.6150  26.5838  31.5563  32.3911

          k =-0.2522 0.7566-0.5044 (   224 PWs)   bands (ev):

   -11.4675   0.4763   3.5058   6.4083  28.7049  29.6545  32.2353

          k =-0.2522 0.6305-0.3783 (   227 PWs)   bands (ev):

   -10.6930   0.0618   2.4365   6.2974  28.5371  30.7918  30.9294

          k = 0.0000 0.0000 0.2522 (   217 PWs)   bands (ev):

   -15.0734   5.7440   6.6547   6.6547  25.9006  36.4201  38.5217

          k = 0.0000-0.1261 0.3783 (   224 PWs)   bands (ev):

   -13.7321   3.3821   5.8321   6.3841  27.1785  31.7631  36.4371

          k = 0.0000-0.2522 0.5044 (   223 PWs)   bands (ev):

   -11.9517   0.5176   5.0878   6.2982  26.8110  30.5658  34.6664

          k = 0.0000 0.6305-0.3783 (   232 PWs)   bands (ev):

   -10.9524  -0.9103   4.7977   6.2602  26.0856  31.0336  34.0335

          k =-0.1261-0.1261 0.5044 (   232 PWs)   bands (ev):

   -12.2036   1.7118   4.4595   6.0818  28.1084  29.0924  35.1474

          k =-0.1261 0.7566-0.3783 (   229 PWs)   bands (ev):

   -10.7689   0.1281   3.3623   6.0798  27.2511  29.4142  33.6485

          k =-0.2522 0.2522 0.2522 (   222 PWs)   bands (ev):

   -13.3608   2.3203   6.0705   6.0705  27.9239  32.0305  32.0305

          k =-0.2522 0.7566-0.2522 (   234 PWs)   bands (ev):

   -10.2215   1.1792   1.1792   6.1467  28.4088  28.4088  32.1940

          k = 0.6305-0.6305 0.2522 (   229 PWs)   bands (ev):

   -11.7519   0.5235   4.4625   5.6629  28.5383  31.0505  31.2192

          k = 0.5044-0.5044 0.2522 (   228 PWs)   bands (ev):

   -10.8981  -0.3559   3.7361   5.4957  28.0691  31.0117  31.6840

          k = 0.5044-0.6305 0.3783 (   228 PWs)   bands (ev):

   -10.7464   0.6271   2.6517   4.7614  29.8269  30.3598  31.0904

          k = 0.0000 0.0000 0.5044 (   233 PWs)   bands (ev):

   -12.5036   3.0965   4.8919   4.8919  27.9396  28.9188  37.7452

          k = 0.0000-0.1261 0.6305 (   227 PWs)   bands (ev):

   -10.9250   1.3504   4.0552   4.6062  26.5814  27.9768  37.7156

          k = 0.0000 0.7566-0.2522 (   232 PWs)   bands (ev):

   -10.0815   0.2856   3.7324   4.6458  25.8586  27.8638  37.4965

          k =-0.1261 0.8827-0.2522 (   229 PWs)   bands (ev):

    -9.8144   1.1669   2.5082   4.6398  25.6613  26.6472  36.6022

          k = 0.5044-0.5044 0.5044 (   240 PWs)   bands (ev):

   -10.4674   2.3218   2.3218   2.3218  30.6887  30.6887  30.6887

          k = 0.0000 0.0000 0.7566 (   229 PWs)   bands (ev):

    -9.6761   2.0351   3.1478   3.1478  24.4026  25.8719  40.1786

          k = 0.0000 0.8827-0.1261 (   236 PWs)   bands (ev):

    -9.0549   1.7336   2.8006   3.1026  23.8784  24.4156  40.3737

          k = 0.0000 0.0000-1.0088 (   236 PWs)   bands (ev):

    -8.5623   2.4453   2.4453   2.4453  22.8958  22.8958  42.1767

     the Fermi energy is     5.5009 ev

!    total energy              =     -41.33512234 Ry
     Harris-Foulkes estimate   =     -41.33512234 Ry
     estimated scf accuracy    <          3.8E-11 Ry

     total all-electron energy =       -41.335122 Ry

     The total energy is the sum of the following terms:

     one-electron contribution =      -1.73463592 Ry
     hartree contribution      =       4.84058979 Ry
     xc contribution           =      -6.61609861 Ry
     ewald contribution        =     -27.85415222 Ry
     one-center paw contrib.   =      -9.97069706 Ry
     smearing contrib. (-TS)   =      -0.00012831 Ry

     convergence has been achieved in   8 iterations

     Forces acting on atoms (cartesian axes, Ry/au):

     atom    1 type  1   force =     0.00000000    0.00000000    0.00000000

     Total force =     0.000000     Total SCF correction =     0.000000


     Computing stress (Cartesian axis) and pressure

          total   stress  (Ry/bohr**3)                   (kbar)     P=    0.61
   0.00000415   0.00000000   0.00000000          0.61      0.00      0.00
   0.00000000   0.00000415   0.00000000          0.00      0.61      0.00
   0.00000000   0.00000000   0.00000415          0.00      0.00      0.61


     number of scf cycles    =   3
     number of bfgs steps    =   2

     enthalpy old            =     -41.3351191435 Ry
     enthalpy new            =     -41.3351223378 Ry

     CASE: enthalpy_new < enthalpy_old

     new trust radius        =       0.0001552654 bohr
     new conv_thr            =            1.0E-10 Ry

     new unit-cell volume =     52.04484 a.u.^3 (     7.71225 Ang^3 )
     density =      3.44486 g/cm^3

CELL_PARAMETERS (alat=  4.74500000)
   0.495681831   0.495681831   0.495681831
  -0.495681831   0.495681831   0.495681831
  -0.495681831  -0.495681831   0.495681831

ATOMIC_POSITIONS (alat)
O        0.000000000   0.000000000   0.000000000



     Writing output data file relax.save/
     NEW-OLD atomic charge density approx. for the potential
     extrapolated charge    6.00194, renormalised to    6.00000

     total cpu time spent up to now is        2.2 secs

     Self-consistent Calculation

     iteration #  1     ecut=    40.00 Ry     beta= 0.70
     Davidson diagonalization with overlap
     ethr =  1.00E-06,  avg # of iterations =  2.0

     Threshold (ethr) on eigenvalues was too large:
     Diagonalizing with lowered threshold

     Davidson diagonalization with overlap
     ethr =  6.22E-09,  avg # of iterations =  1.0

     total cpu time spent up to now is        2.2 secs

     total energy              =     -41.33512178 Ry
     Harris-Foulkes estimate   =     -41.33485805 Ry
     estimated scf accuracy    <       0.00000037 Ry

     iteration #  2     ecut=    40.00 Ry     beta= 0.70
     Davidson diagonalization with overlap
     ethr =  6.22E-09,  avg # of iterations =  2.2

     total cpu time spent up to now is        2.3 secs

     total energy              =     -41.33512238 Ry
     Harris-Foulkes estimate   =     -41.33512261 Ry
     estimated scf accuracy    <       0.00000050 Ry

     iteration #  3     ecut=    40.00 Ry     beta= 0.70
     Davidson diagonalization with overlap
     ethr =  6.22E-09,  avg # of iterations =  1.0

     total cpu time spent up to now is        2.3 secs

     total energy              =     -41.33512237 Ry
     Harris-Foulkes estimate   =     -41.33512241 Ry
     estimated scf accuracy    <       0.00000009 Ry

     iteration #  4     ecut=    40.00 Ry     beta= 0.70
     Davidson diagonalization with overlap
     ethr =  1.54E-09,  avg # of iterations =  1.2

     total cpu time spent up to now is        2.4 secs

     total energy              =     -41.33512237 Ry
     Harris-Foulkes estimate   =     -41.33512237 Ry
     estimated scf accuracy    <       0.00000001 Ry

     iteration #  5     ecut=    40.00 Ry     beta= 0.70
     Davidson diagonalization with overlap
     ethr =  2.21E-10,  avg # of iterations =  1.0

     total cpu time spent up to now is        2.4 secs

     total energy              =     -41.33512237 Ry
     Harris-Foulkes estimate   =     -41.33512237 Ry
     estimated scf accuracy    <          3.0E-09 Ry

     iteration #  6     ecut=    40.00 Ry     beta= 0.70
     Davidson diagonalization with overlap
     ethr =  4.93E-11,  avg # of iterations =  1.9

     total cpu time spent up to now is        2.5 secs

     End of self-consistent calculation

          k = 0.0000 0.0000 0.0000 (   225 PWs)   bands (ev):

   -16.0455   7.3557   7.3557   7.3557  24.3321  41.7841  41.7841

          k = 0.0000-0.1261 0.1261 (   223 PWs)   bands (ev):

   -15.5552   6.1572   7.0166   7.3052  25.1761  37.5443  38.9028

          k = 0.0000-0.2522 0.2522 (   227 PWs)   bands (ev):

   -14.1798   3.3050   6.2531   7.1783  26.5605  32.7076  35.4865

          k = 0.0000-0.3783 0.3783 (   233 PWs)   bands (ev):

   -12.3360   0.1855   5.5573   7.0434  26.1305  31.8100  33.3275

          k = 0.0000 0.5044-0.5044 (   234 PWs)   bands (ev):

   -11.2846  -1.3556   5.2848   6.9853  25.4653  32.2348  32.5987

          k =-0.1261-0.1261 0.2522 (   223 PWs)   bands (ev):

   -14.6197   4.3136   6.4769   6.9976  26.4266  33.8789  35.6359

          k =-0.1261-0.2522 0.3783 (   231 PWs)   bands (ev):

   -12.9774   1.6653   5.3839   6.7556  27.3650  31.1514  33.4845

          k =-0.1261 0.6304-0.5044 (   226 PWs)   bands (ev):

   -11.3802  -0.6143   4.6425   6.6094  26.5758  31.5464  32.3830

          k =-0.2522 0.7565-0.5044 (   224 PWs)   bands (ev):

   -11.4715   0.4732   3.5017   6.4028  28.6957  29.6463  32.2264

          k =-0.2522 0.6304-0.3783 (   227 PWs)   bands (ev):

   -10.6976   0.0591   2.4329   6.2920  28.5287  30.7821  30.9212

          k = 0.0000 0.0000 0.2522 (   217 PWs)   bands (ev):

   -15.0753   5.7384   6.6491   6.6491  25.8897  36.4119  38.5127

          k = 0.0000-0.1261 0.3783 (   224 PWs)   bands (ev):

   -13.7347   3.3774   5.8269   6.3786  27.1680  31.7554  36.4285

          k = 0.0000-0.2522 0.5044 (   223 PWs)   bands (ev):

   -11.9552   0.5144   5.0829   6.2927  26.8028  30.5564  34.6582

          k = 0.0000 0.6304-0.3783 (   232 PWs)   bands (ev):

   -10.9568  -0.9126   4.7929   6.2547  26.0781  31.0237  34.0255

          k =-0.1261-0.1261 0.5044 (   232 PWs)   bands (ev):

   -12.2069   1.7079   4.4549   6.0764  28.0985  29.0852  35.1386

          k =-0.1261 0.7565-0.3783 (   229 PWs)   bands (ev):

   -10.7733   0.1253   3.3582   6.0744  27.2434  29.4053  33.6399

          k =-0.2522 0.2522 0.2522 (   222 PWs)   bands (ev):

   -13.3635   2.3161   6.0653   6.0653  27.9132  32.0225  32.0225

          k =-0.2522 0.7565-0.2522 (   234 PWs)   bands (ev):

   -10.2263   1.1761   1.1761   6.1413  28.4007  28.4007  32.1854

          k = 0.6304-0.6304 0.2522 (   229 PWs)   bands (ev):

   -11.7556   0.5203   4.4580   5.6578  28.5292  31.0409  31.2112

          k = 0.5044-0.5044 0.2522 (   228 PWs)   bands (ev):

   -10.9025  -0.3584   3.7319   5.4908  28.0606  31.0036  31.6737

          k = 0.5044-0.6304 0.3783 (   228 PWs)   bands (ev):

   -10.7509   0.6242   2.6481   4.7568  29.8181  30.3508  31.0808

          k = 0.0000 0.0000 0.5044 (   233 PWs)   bands (ev):

   -12.5068   3.0918   4.8872   4.8872  27.9295  28.9122  37.7357

          k = 0.0000-0.1261 0.6304 (   227 PWs)   bands (ev):

   -10.9292   1.3468   4.0508   4.6014  26.5748  27.9681  37.7060

          k = 0.0000 0.7565-0.2522 (   232 PWs)   bands (ev):

   -10.0863   0.2828   3.7281   4.6410  25.8519  27.8558  37.4869

          k =-0.1261 0.8826-0.2522 (   229 PWs)   bands (ev):

    -9.8194   1.1636   2.5045   4.6350  25.6549  26.6398  36.5922

          k = 0.5044-0.5044 0.5044 (   240 PWs)   bands (ev):

   -10.4722   2.3183   2.3183   2.3183  30.6794  30.6794  30.6794

          k = 0.0000 0.0000 0.7565 (   229 PWs)   bands (ev):

    -9.6811   2.0313   3.1437   3.1437  24.3969  25.8648  40.1676

          k = 0.0000 0.8826-0.1261 (   236 PWs)   bands (ev):

    -9.0604   1.7301   2.7967   3.0985  23.8727  24.4095  40.3623

          k = 0.0000 0.0000-1.0087 (   236 PWs)   bands (ev):

    -8.5682   2.4415   2.4415   2.4415  22.8905  22.8905  42.1646

     the Fermi energy is     5.4960 ev

!    total energy              =     -41.33512237 Ry
     Harris-Foulkes estimate   =     -41.33512237 Ry
     estimated scf accuracy    <          2.4E-11 Ry

     total all-electron energy =       -41.335122 Ry

     The total energy is the sum of the following terms:

     one-electron contribution =      -1.73898584 Ry
     hartree contribution      =       4.84178715 Ry
     xc contribution           =      -6.61594633 Ry
     ewald contribution        =     -27.85115465 Ry
     one-center paw contrib.   =      -9.97069427 Ry
     smearing contrib. (-TS)   =      -0.00012843 Ry

     convergence has been achieved in   6 iterations

     Forces acting on atoms (cartesian axes, Ry/au):

     atom    1 type  1   force =     0.00000000    0.00000000    0.00000000

     Total force =     0.000000     Total SCF correction =     0.000000


     Computing stress (Cartesian axis) and pressure

          total   stress  (Ry/bohr**3)                   (kbar)     P=   -0.07
  -0.00000046  -0.00000000   0.00000000         -0.07     -0.00      0.00
  -0.00000000  -0.00000046  -0.00000000         -0.00     -0.07     -0.00
   0.00000000  -0.00000000  -0.00000046          0.00     -0.00     -0.07


     bfgs converged in   4 scf cycles and   3 bfgs steps
     (criteria: energy <  1.0E-04 Ry, force <  1.0E-03Ry/Bohr, cell <  5.0E-01kbar)

     End of BFGS Geometry Optimization

     Final enthalpy =     -41.3351223679 Ry
Begin final coordinates
     new unit-cell volume =     52.04484 a.u.^3 (     7.71225 Ang^3 )
     density =      3.44486 g/cm^3

CELL_PARAMETERS (alat=  4.74500000)
   0.495681831   0.495681831   0.495681831
  -0.495681831   0.495681831   0.495681831
  -0.495681831  -0.495681831   0.495681831

ATOMIC_POSITIONS (alat)
O        0.000000000   0.000000000   0.000000000
End final coordinates



     Writing output data file relax.save/

     A final scf calculation at the relaxed structure.
     The G-vectors are recalculated for the final unit cell
     Results may differ from those at the preceding step.
 
     Parallelization info
     --------------------
     sticks:   dense  smooth     PW     G-vecs:    dense   smooth      PW
     Min          62      50     17                  622      436      95
     Max          63      51     18                  624      437      96
     Sum         249     201     69                 2491     1745     381
 


     bravais-lattice index     =            3
     lattice parameter (alat)  =       4.7450  a.u.
     unit-cell volume          =      52.0448 (a.u.)^3
     number of atoms/cell      =            1
     number of atomic types    =            1
     number of electrons       =         6.00
     number of Kohn-Sham states=            7
     kinetic-energy cutoff     =      40.0000  Ry
     charge density cutoff     =     200.0000  Ry
     convergence threshold     =      1.0E-10
     mixing beta               =       0.7000
     number of iterations used =            8  plain     mixing
     Exchange-correlation      = SLA PW PBX PBC ( 1  4  3  4 0 0)

     celldm(1)=   4.745000  celldm(2)=   0.000000  celldm(3)=   0.000000
     celldm(4)=   0.000000  celldm(5)=   0.000000  celldm(6)=   0.000000

     crystal axes: (cart. coord. in units of alat)
               a(1) = (   0.495682   0.495682   0.495682 )  
               a(2) = (  -0.495682   0.495682   0.495682 )  
               a(3) = (  -0.495682  -0.495682   0.495682 )  

     reciprocal axes: (cart. coord. in units 2 pi/alat)
               b(1) = (  1.008712  0.000000  1.008712 )  
               b(2) = ( -1.008712  1.008712  0.000000 )  
               b(3) = (  0.000000 -1.008712  1.008712 )  


     PseudoPot. # 1 for O  read from file:
     ./O.GGA-PBE-paw.UPF
     MD5 check sum: 3d3bcd24ff459d4dba01a425ce462d30
     Pseudo is Projector augmented-wave + core cor, Zval =  6.0
     Generated using ATOMPAW code
     Shape of augmentation charge: SINC**2
     Using radial grid of 2342 points,  4 beta functions with: 
                l(1) =   0
                l(2) =   0
                l(3) =   1
                l(4) =   1
     Q(r) pseudized with 0 coefficients 


     atomic species   valence    mass     pseudopotential
        O              6.00    15.99940     O ( 1.00)

     48 Sym. Ops., with inversion, found



   Cartesian axes

     site n.     atom                  positions (alat units)
         1           O   tau(   1) = (   0.0000000   0.0000000   0.0000000  )

     number of k points=    29  Fermi-Dirac smearing, width (Ry)=  0.0020
                       cart. coord. in units 2pi/alat
        k(    1) = (   0.0000000   0.0000000   0.0000000), wk =   0.0039062
        k(    2) = (   0.0000000  -0.1260889   0.1260889), wk =   0.0468750
        k(    3) = (   0.0000000  -0.2521779   0.2521779), wk =   0.0468750
        k(    4) = (   0.0000000  -0.3782668   0.3782668), wk =   0.0468750
        k(    5) = (   0.0000000   0.5043558  -0.5043558), wk =   0.0234375
        k(    6) = (  -0.1260889  -0.1260889   0.2521779), wk =   0.0937500
        k(    7) = (  -0.1260889  -0.2521779   0.3782668), wk =   0.1875000
        k(    8) = (  -0.1260889   0.6304447  -0.5043558), wk =   0.1875000
        k(    9) = (  -0.2521779   0.7565337  -0.5043558), wk =   0.0937500
        k(   10) = (  -0.2521779   0.6304447  -0.3782668), wk =   0.0937500
        k(   11) = (   0.0000000   0.0000000   0.2521779), wk =   0.0234375
        k(   12) = (   0.0000000  -0.1260889   0.3782668), wk =   0.0937500
        k(   13) = (   0.0000000  -0.2521779   0.5043558), wk =   0.0937500
        k(   14) = (   0.0000000   0.6304447  -0.3782668), wk =   0.0468750
        k(   15) = (  -0.1260889  -0.1260889   0.5043558), wk =   0.0937500
        k(   16) = (  -0.1260889   0.7565337  -0.3782668), wk =   0.1875000
        k(   17) = (  -0.2521779   0.2521779   0.2521779), wk =   0.0312500
        k(   18) = (  -0.2521779   0.7565337  -0.2521779), wk =   0.0312500
        k(   19) = (   0.6304447  -0.6304447   0.2521779), wk =   0.0937500
        k(   20) = (   0.5043558  -0.5043558   0.2521779), wk =   0.0468750
        k(   21) = (   0.5043558  -0.6304447   0.3782668), wk =   0.0937500
        k(   22) = (   0.0000000   0.0000000   0.5043558), wk =   0.0234375
        k(   23) = (   0.0000000  -0.1260889   0.6304447), wk =   0.0937500
        k(   24) = (   0.0000000   0.7565337  -0.2521779), wk =   0.0468750
        k(   25) = (  -0.1260889   0.8826226  -0.2521779), wk =   0.0937500
        k(   26) = (   0.5043558  -0.5043558   0.5043558), wk =   0.0078125
        k(   27) = (   0.0000000   0.0000000   0.7565337), wk =   0.0234375
        k(   28) = (   0.0000000   0.8826226  -0.1260889), wk =   0.0468750
        k(   29) = (   0.0000000   0.0000000  -1.0087116), wk =   0.0039062

     Dense  grid:     2491 G-vectors     FFT dimensions: (  20,  20,  20)

     Smooth grid:     1745 G-vectors     FFT dimensions: (  18,  18,  18)

     Estimated max dynamical RAM per process >       1.55 MB

     Estimated total dynamical RAM >       6.19 MB

     Initial potential from superposition of free atoms

     starting charge    6.00000, renormalised to    6.00000
     Starting wfcs are    8 randomized atomic wfcs
     Checking if some PAW data can be deallocated... 

     total cpu time spent up to now is        2.7 secs

     Self-consistent Calculation

     iteration #  1     ecut=    40.00 Ry     beta= 0.70
     Davidson diagonalization with overlap
     ethr =  1.00E-06,  avg # of iterations =  8.2

     total cpu time spent up to now is        2.8 secs

     total energy              =     -41.33491939 Ry
     Harris-Foulkes estimate   =     -41.33494250 Ry
     estimated scf accuracy    <       0.00017094 Ry

     iteration #  2     ecut=    40.00 Ry     beta= 0.70
     Davidson diagonalization with overlap
     ethr =  2.85E-06,  avg # of iterations =  1.9

     total cpu time spent up to now is        2.9 secs

     total energy              =     -41.33498367 Ry
     Harris-Foulkes estimate   =     -41.33497393 Ry
     estimated scf accuracy    <       0.00003555 Ry

     iteration #  3     ecut=    40.00 Ry     beta= 0.70
     Davidson diagonalization with overlap
     ethr =  5.93E-07,  avg # of iterations =  1.0

     total cpu time spent up to now is        2.9 secs

     total energy              =     -41.33498983 Ry
     Harris-Foulkes estimate   =     -41.33498617 Ry
     estimated scf accuracy    <       0.00000293 Ry

     iteration #  4     ecut=    40.00 Ry     beta= 0.70
     Davidson diagonalization with overlap
     ethr =  4.88E-08,  avg # of iterations =  2.0

     total cpu time spent up to now is        3.0 secs

     total energy              =     -41.33499041 Ry
     Harris-Foulkes estimate   =     -41.33499042 Ry
     estimated scf accuracy    <       0.00000001 Ry

     iteration #  5     ecut=    40.00 Ry     beta= 0.70
     Davidson diagonalization with overlap
     ethr =  2.19E-10,  avg # of iterations =  1.5

     total cpu time spent up to now is        3.0 secs

     End of self-consistent calculation

          k = 0.0000 0.0000 0.0000 (   225 PWs)   bands (ev):

   -16.0458   7.3554   7.3554   7.3554  24.3318  41.7838  41.7838

          k = 0.0000-0.1261 0.1261 (   219 PWs)   bands (ev):

   -15.5554   6.1580   7.0166   7.3050  25.1761  37.5448  38.9029

          k = 0.0000-0.2522 0.2522 (   219 PWs)   bands (ev):

   -14.1801   3.3058   6.2535   7.1788  26.5613  32.7080  35.4873

          k = 0.0000-0.3783 0.3783 (   220 PWs)   bands (ev):

   -12.3363   0.1861   5.5579   7.0453  26.1307  31.8107  33.3286

          k = 0.0000 0.5044-0.5044 (   214 PWs)   bands (ev):

   -11.2849  -1.3552   5.2872   6.9892  25.4654  32.2353  32.6004

          k =-0.1261-0.1261 0.2522 (   218 PWs)   bands (ev):

   -14.6200   4.3140   6.4773   6.9978  26.4264  33.8793  35.6365

          k =-0.1261-0.2522 0.3783 (   220 PWs)   bands (ev):

   -12.9777   1.6656   5.3847   6.7570  27.3651  31.1520  33.4854

          k =-0.1261 0.6304-0.5044 (   224 PWs)   bands (ev):

   -11.3807  -0.6144   4.6422   6.6096  26.5759  31.5466  32.3830

          k =-0.2522 0.7565-0.5044 (   224 PWs)   bands (ev):

   -11.4719   0.4729   3.5015   6.4025  28.6956  29.6464  32.2264

          k =-0.2522 0.6304-0.3783 (   223 PWs)   bands (ev):

   -10.6980   0.0593   2.4332   6.2919  28.5291  30.7826  30.9213

          k = 0.0000 0.0000 0.2522 (   217 PWs)   bands (ev):

   -15.0757   5.7381   6.6488   6.6488  25.8894  36.4122  38.5126

          k = 0.0000-0.1261 0.3783 (   221 PWs)   bands (ev):

   -13.7350   3.3776   5.8266   6.3788  27.1680  31.7559  36.4284

          k = 0.0000-0.2522 0.5044 (   223 PWs)   bands (ev):

   -11.9557   0.5142   5.0826   6.2924  26.8028  30.5565  34.6581

          k = 0.0000 0.6304-0.3783 (   222 PWs)   bands (ev):

   -10.9572  -0.9119   4.7930   6.2557  26.0787  31.0245  34.0262

          k =-0.1261-0.1261 0.5044 (   224 PWs)   bands (ev):

   -12.2073   1.7081   4.4558   6.0769  28.0988  29.0858  35.1392

          k =-0.1261 0.7565-0.3783 (   221 PWs)   bands (ev):

   -10.7737   0.1255   3.3583   6.0757  27.2437  29.4055  33.6404

          k =-0.2522 0.2522 0.2522 (   222 PWs)   bands (ev):

   -13.3639   2.3158   6.0650   6.0650  27.9130  32.0226  32.0226

          k =-0.2522 0.7565-0.2522 (   221 PWs)   bands (ev):

   -10.2267   1.1768   1.1768   6.1428  28.4016  28.4016  32.1859

          k = 0.6304-0.6304 0.2522 (   225 PWs)   bands (ev):

   -11.7560   0.5206   4.4579   5.6582  28.5291  31.0412  31.2115

          k = 0.5044-0.5044 0.2522 (   218 PWs)   bands (ev):

   -10.9029  -0.3583   3.7330   5.4923  28.0608  31.0042  31.6738

          k = 0.5044-0.6304 0.3783 (   226 PWs)   bands (ev):

   -10.7514   0.6243   2.6479   4.7568  29.8181  30.3510  31.0810

          k = 0.0000 0.0000 0.5044 (   233 PWs)   bands (ev):

   -12.5072   3.0915   4.8869   4.8869  27.9294  28.9125  37.7356

          k = 0.0000-0.1261 0.6304 (   227 PWs)   bands (ev):

   -10.9296   1.3466   4.0505   4.6011  26.5751  27.9681  37.7058

          k = 0.0000 0.7565-0.2522 (   222 PWs)   bands (ev):

   -10.0867   0.2834   3.7291   4.6416  25.8524  27.8570  37.4871

          k =-0.1261 0.8826-0.2522 (   226 PWs)   bands (ev):

    -9.8199   1.1637   2.5044   4.6352  25.6552  26.6400  36.5922

          k = 0.5044-0.5044 0.5044 (   216 PWs)   bands (ev):

   -10.4725   2.3198   2.3198   2.3198  30.6809  30.6809  30.6809

          k = 0.0000 0.0000 0.7565 (   228 PWs)   bands (ev):

    -9.6816   2.0314   3.1435   3.1435  24.3972  25.8650  40.1674

          k = 0.0000 0.8826-0.1261 (   232 PWs)   bands (ev):

    -9.0609   1.7300   2.7965   3.0992  23.8733  24.4101  40.3621

          k = 0.0000 0.0000-1.0087 (   236 PWs)   bands (ev):

    -8.5687   2.4412   2.4412   2.4412  22.8908  22.8908  42.1643

     the Fermi energy is     5.4971 ev

!    total energy              =     -41.33499041 Ry
     Harris-Foulkes estimate   =     -41.33499041 Ry
     estimated scf accuracy    <          4.2E-11 Ry

     total all-electron energy =       -41.334990 Ry

     The total energy is the sum of the following terms:

     one-electron contribution =      -1.73867002 Ry
     hartree contribution      =       4.84162297 Ry
     xc contribution           =      -6.61592674 Ry
     ewald contribution        =     -27.85115468 Ry
     one-center paw contrib.   =      -9.97073332 Ry
     smearing contrib. (-TS)   =      -0.00012863 Ry

     convergence has been achieved in   5 iterations

     Forces acting on atoms (cartesian axes, Ry/au):

     atom    1 type  1   force =     0.00000000    0.00000000    0.00000000

     Total force =     0.000000     Total SCF correction =     0.000000


     Computing stress (Cartesian axis) and pressure

          total   stress  (Ry/bohr**3)                   (kbar)     P=   -4.91
  -0.00003341  -0.00000000   0.00000000         -4.91     -0.00      0.00
  -0.00000000  -0.00003341  -0.00000000         -0.00     -4.91     -0.00
   0.00000000  -0.00000000  -0.00003341          0.00     -0.00     -4.91


     Writing output data file relax.save/
 
     init_run     :      0.26s CPU      0.27s WALL (       2 calls)
     electrons    :      1.56s CPU      1.74s WALL (       5 calls)
     update_pot   :      0.17s CPU      0.17s WALL (       3 calls)
     forces       :      0.08s CPU      0.09s WALL (       5 calls)
     stress       :      0.18s CPU      0.18s WALL (       5 calls)

     Called by init_run:
     wfcinit      :      0.02s CPU      0.02s WALL (       2 calls)
     potinit      :      0.05s CPU      0.06s WALL (       2 calls)
     hinit0       :      0.18s CPU      0.19s WALL (       2 calls)

     Called by electrons:
     c_bands      :      0.78s CPU      0.93s WALL (      32 calls)
     sum_band     :      0.13s CPU      0.16s WALL (      32 calls)
     v_of_rho     :      0.02s CPU      0.02s WALL (      35 calls)
     newd         :      0.01s CPU      0.01s WALL (      35 calls)
     PAW_pot      :      0.76s CPU      0.77s WALL (      38 calls)
     mix_rho      :      0.00s CPU      0.00s WALL (      32 calls)

     Called by c_bands:
     init_us_2    :      0.02s CPU      0.02s WALL (    2291 calls)
     cegterg      :      0.75s CPU      0.89s WALL (     928 calls)

     Called by sum_band:
     sum_band:bec :      0.00s CPU      0.00s WALL (    1015 calls)
     addusdens    :      0.01s CPU      0.01s WALL (      32 calls)

     Called by *egterg:
     h_psi        :      0.52s CPU      0.62s WALL (    2778 calls)
     s_psi        :      0.01s CPU      0.01s WALL (    2778 calls)
     g_psi        :      0.00s CPU      0.00s WALL (    1792 calls)
     cdiaghg      :      0.15s CPU      0.18s WALL (    2575 calls)

     Called by h_psi:
     h_psi:pot    :      0.52s CPU      0.62s WALL (    2778 calls)
     h_psi:calbec :      0.02s CPU      0.02s WALL (    2778 calls)
     vloc_psi     :      0.48s CPU      0.57s WALL (    2778 calls)
     add_vuspsi   :      0.01s CPU      0.01s WALL (    2778 calls)

     General routines
     calbec       :      0.03s CPU      0.03s WALL (    4518 calls)
     fft          :      0.02s CPU      0.02s WALL (     580 calls)
     ffts         :      0.00s CPU      0.00s WALL (      67 calls)
     fftw         :      0.51s CPU      0.60s WALL (   39292 calls)
     interpolate  :      0.00s CPU      0.00s WALL (      35 calls)
 
     Parallel routines
     fft_scatt_xy :      0.08s CPU      0.09s WALL (   39939 calls)
     fft_scatt_yz :      0.20s CPU      0.24s WALL (   39939 calls)
 
     PWSCF        :     2.81s CPU         3.04s WALL

 
   This run was terminated on:  17:30:35  31Jul2019            

=------------------------------------------------------------------------------=
   JOB DONE.
=------------------------------------------------------------------------------=
