{
    "directories":
        {
            "elem_template_dir": "/home/szymansk/Elem_Templates",
            "cmpd_template_dir": "/home/szymansk/Optimization_Sets/Pb/Input"
        },
    "compounds": [
        {
            "formula": "Pb",
            "lattice_type": "BCC",
            "phonon_frequency": [0.0,0.0,0.0,1.59,1.59,1.59]
        },
        {
            "formula": "PbO",
            "lattice_type": "RS",
            "lattice_constant": 5.269
        },
        {
            "formula": "PbSn",
            "lattice_type": "ZB",
            "eos": [40.63500, 30.33528, 4.160]
        },
        {
            "formula": "PbTiO3",
            "lattice_type": "per",
            "lattice_constant": 3.971,
            "band_gap": 1.500
        }

    ]
}
