===== VARIABLES =====
EXE_PATH = /scr/szymansk/2019-3/qe-bin/bin/pw.x
tpp = 4
Parallel keywords = -nimage 1
MPIRUN_EXE = orterun
PATH = /scr/szymansk/2019-3/mmshare-v4.7/lib/Linux-x86_64/openmpi/bin:/scr/szymansk/2019-3/internal/bin:/scr/szymansk/2019-3/mmshare-v4.7/bin/Linux-x86_64:/scr/szymansk/gaopaw_test/pytesting_stuff/Si_Elem/workdir_pp.1:.:/scr/szymansk/gaopaw_test/pytesting_stuff/Si_Elem:/home/szymansk/bin:/scr/szymansk/dakota/bin:/scr/szymansk/atompaw-4.1.0.5/src/:/usr/lib64/qt-3.3/bin:/usr/local/bin:/usr/local/sbin:/usr/bin:/usr/sbin:/bin:/sbin
LD_LIBRARY_PATH = /scr/szymansk/2019-3/mmshare-v4.7/lib/Linux-x86_64/openmpi/lib:/scr/szymansk/2019-3/internal/lib/ssl:/scr/szymansk/2019-3/internal/lib:/scr/szymansk/2019-3/mmshare-v4.7/lib/Linux-x86_64:/scr/szymansk/2019-3/internal/lib/python3.6/site-packages:/scr/szymansk/dakota/bin:/software/lib/Linux-x86_64/ifort_2017.1.132/mkl/lib/intel64
===== END VARIABLES =====
Invoking: exe_cmd () 
{ 
    "$MPIRUN_EXE" -np $tpp "$EXE_PATH" -in $input_file "${P_KEYWORDS[@]}"
}

     Program PWSCF v.6.3MaX starts on 16Jul2019 at  9:26:56 

     This program is part of the open-source Quantum ESPRESSO suite
     for quantum simulation of materials; please cite
         "P. Giannozzi et al., J. Phys.:Condens. Matter 21 395502 (2009);
         "P. Giannozzi et al., J. Phys.:Condens. Matter 29 465901 (2017);
          URL http://www.quantum-espresso.org", 
     in publications or presentations arising from this work. More details at
     http://www.quantum-espresso.org/quote

     Parallel version (MPI), running on     4 processors

     MPI processes distributed on     1 nodes
     R & G space division:  proc/nbgrp/npool/nimage =       4
     Reading input from Si.BCC.relax.in

     Current dimensions of program PWSCF are:
     Max number of different atomic species (ntypx) = 10
     Max number of k-points (npk) =  40000
     Max angular momentum in pseudopotentials (lmaxx) =  3
               file Si.GGA-PBE-paw.UPF: wavefunction(s)  Xn Xn renormalized

     Subspace diagonalization in iterative solution of the eigenvalue problem:
     a serial algorithm will be used

 
     Parallelization info
     --------------------
     sticks:   dense  smooth     PW     G-vecs:    dense   smooth      PW
     Min         102      80     25                 1307      897     170
     Max         103      81     26                 1309      898     171
     Sum         411     321    103                 5233     3589     683
 


     bravais-lattice index     =            3
     lattice parameter (alat)  =       6.0000  a.u.
     unit-cell volume          =     108.0000 (a.u.)^3
     number of atoms/cell      =            1
     number of atomic types    =            1
     number of electrons       =         4.00
     number of Kohn-Sham states=            6
     kinetic-energy cutoff     =      40.0000  Ry
     charge density cutoff     =     200.0000  Ry
     convergence threshold     =      1.0E-08
     mixing beta               =       0.7000
     number of iterations used =            8  plain     mixing
     Exchange-correlation      = SLA PW PBX PBC ( 1  4  3  4 0 0)
     nstep                     =           50


     celldm(1)=   6.000000  celldm(2)=   0.000000  celldm(3)=   0.000000
     celldm(4)=   0.000000  celldm(5)=   0.000000  celldm(6)=   0.000000

     crystal axes: (cart. coord. in units of alat)
               a(1) = (   0.500000   0.500000   0.500000 )  
               a(2) = (  -0.500000   0.500000   0.500000 )  
               a(3) = (  -0.500000  -0.500000   0.500000 )  

     reciprocal axes: (cart. coord. in units 2 pi/alat)
               b(1) = (  1.000000  0.000000  1.000000 )  
               b(2) = ( -1.000000  1.000000  0.000000 )  
               b(3) = (  0.000000 -1.000000  1.000000 )  


     PseudoPot. # 1 for Si read from file:
     ./Si.GGA-PBE-paw.UPF
     MD5 check sum: 55a399ac9c9f37f95204fc9e5818eb3e
     Pseudo is Projector augmented-wave + core cor, Zval =  4.0
     Generated using ATOMPAW code
     Shape of augmentation charge: BESSEL
     Using radial grid of 2342 points,  4 beta functions with: 
                l(1) =   0
                l(2) =   0
                l(3) =   1
                l(4) =   1
     Q(r) pseudized with 0 coefficients 


     atomic species   valence    mass     pseudopotential
        Si             4.00    28.08550     Si( 1.00)

     48 Sym. Ops., with inversion, found



   Cartesian axes

     site n.     atom                  positions (alat units)
         1           Si  tau(   1) = (   0.0000000   0.0000000   0.0000000  )

     number of k points=    29  Fermi-Dirac smearing, width (Ry)=  0.0020
                       cart. coord. in units 2pi/alat
        k(    1) = (   0.0000000   0.0000000   0.0000000), wk =   0.0039062
        k(    2) = (   0.0000000  -0.1250000   0.1250000), wk =   0.0468750
        k(    3) = (   0.0000000  -0.2500000   0.2500000), wk =   0.0468750
        k(    4) = (   0.0000000  -0.3750000   0.3750000), wk =   0.0468750
        k(    5) = (   0.0000000   0.5000000  -0.5000000), wk =   0.0234375
        k(    6) = (  -0.1250000  -0.1250000   0.2500000), wk =   0.0937500
        k(    7) = (  -0.1250000  -0.2500000   0.3750000), wk =   0.1875000
        k(    8) = (  -0.1250000   0.6250000  -0.5000000), wk =   0.1875000
        k(    9) = (  -0.2500000   0.7500000  -0.5000000), wk =   0.0937500
        k(   10) = (  -0.2500000   0.6250000  -0.3750000), wk =   0.0937500
        k(   11) = (   0.0000000   0.0000000   0.2500000), wk =   0.0234375
        k(   12) = (   0.0000000  -0.1250000   0.3750000), wk =   0.0937500
        k(   13) = (   0.0000000  -0.2500000   0.5000000), wk =   0.0937500
        k(   14) = (   0.0000000   0.6250000  -0.3750000), wk =   0.0468750
        k(   15) = (  -0.1250000  -0.1250000   0.5000000), wk =   0.0937500
        k(   16) = (  -0.1250000   0.7500000  -0.3750000), wk =   0.1875000
        k(   17) = (  -0.2500000   0.2500000   0.2500000), wk =   0.0312500
        k(   18) = (  -0.2500000   0.7500000  -0.2500000), wk =   0.0312500
        k(   19) = (   0.6250000  -0.6250000   0.2500000), wk =   0.0937500
        k(   20) = (   0.5000000  -0.5000000   0.2500000), wk =   0.0468750
        k(   21) = (   0.5000000  -0.6250000   0.3750000), wk =   0.0937500
        k(   22) = (   0.0000000   0.0000000   0.5000000), wk =   0.0234375
        k(   23) = (   0.0000000  -0.1250000   0.6250000), wk =   0.0937500
        k(   24) = (   0.0000000   0.7500000  -0.2500000), wk =   0.0468750
        k(   25) = (  -0.1250000   0.8750000  -0.2500000), wk =   0.0937500
        k(   26) = (   0.5000000  -0.5000000   0.5000000), wk =   0.0078125
        k(   27) = (   0.0000000   0.0000000   0.7500000), wk =   0.0234375
        k(   28) = (   0.0000000   0.8750000  -0.1250000), wk =   0.0468750
        k(   29) = (   0.0000000   0.0000000  -1.0000000), wk =   0.0039062

     Dense  grid:     5233 G-vectors     FFT dimensions: (  24,  24,  24)

     Smooth grid:     3589 G-vectors     FFT dimensions: (  24,  24,  24)

     Estimated max dynamical RAM per process >       2.73 MB

     Estimated total dynamical RAM >      10.91 MB

     Initial potential from superposition of free atoms
     Check: negative starting charge=   -0.001530

     starting charge    3.99937, renormalised to    4.00000

     negative rho (up, down):  1.530E-03 0.000E+00
     Starting wfcs are    8 randomized atomic wfcs
     Checking if some PAW data can be deallocated... 

     total cpu time spent up to now is        0.7 secs

     Self-consistent Calculation

     iteration #  1     ecut=    40.00 Ry     beta= 0.70
     Davidson diagonalization with overlap
     ethr =  1.00E-02,  avg # of iterations =  4.3

     Threshold (ethr) on eigenvalues was too large:
     Diagonalizing with lowered threshold

     Davidson diagonalization with overlap
     ethr =  8.75E-05,  avg # of iterations =  2.7

     negative rho (up, down):  1.517E-03 0.000E+00

     total cpu time spent up to now is        0.8 secs

     total energy              =     -46.68404571 Ry
     Harris-Foulkes estimate   =     -46.68514275 Ry
     estimated scf accuracy    <       0.00352698 Ry

     iteration #  2     ecut=    40.00 Ry     beta= 0.70
     Davidson diagonalization with overlap
     ethr =  8.82E-05,  avg # of iterations =  1.2

     negative rho (up, down):  1.581E-03 0.000E+00

     total cpu time spent up to now is        0.9 secs

     total energy              =     -46.68414008 Ry
     Harris-Foulkes estimate   =     -46.68418124 Ry
     estimated scf accuracy    <       0.00017075 Ry

     iteration #  3     ecut=    40.00 Ry     beta= 0.70
     Davidson diagonalization with overlap
     ethr =  4.27E-06,  avg # of iterations =  2.8

     negative rho (up, down):  1.726E-03 0.000E+00

     total cpu time spent up to now is        1.0 secs

     total energy              =     -46.68417886 Ry
     Harris-Foulkes estimate   =     -46.68417953 Ry
     estimated scf accuracy    <       0.00000105 Ry

     iteration #  4     ecut=    40.00 Ry     beta= 0.70
     Davidson diagonalization with overlap
     ethr =  2.63E-08,  avg # of iterations =  2.6

     negative rho (up, down):  1.746E-03 0.000E+00

     total cpu time spent up to now is        1.0 secs

     total energy              =     -46.68418022 Ry
     Harris-Foulkes estimate   =     -46.68418021 Ry
     estimated scf accuracy    <       0.00000001 Ry

     iteration #  5     ecut=    40.00 Ry     beta= 0.70
     Davidson diagonalization with overlap
     ethr =  3.72E-10,  avg # of iterations =  2.9

     negative rho (up, down):  1.751E-03 0.000E+00

     total cpu time spent up to now is        1.1 secs

     End of self-consistent calculation

          k = 0.0000 0.0000 0.0000 (   459 PWs)   bands (ev):

    -4.1358  19.5596  19.5597  19.5597  21.6637  21.6637

          k = 0.0000-0.1250 0.1250 (   459 PWs)   bands (ev):

    -3.6867  16.2735  17.6789  19.0651  20.4209  21.8754

          k = 0.0000-0.2500 0.2500 (   457 PWs)   bands (ev):

    -2.3457  11.3821  15.7925  17.9986  18.6067  20.2089

          k = 0.0000-0.3750 0.3750 (   464 PWs)   bands (ev):

    -0.1351   6.8368  14.6396  17.1171  17.3835  19.0538

          k = 0.0000 0.5000-0.5000 (   444 PWs)   bands (ev):

     2.5751   3.3299  14.2541  16.7945  16.9635  18.6565

          k =-0.1250-0.1250 0.2500 (   457 PWs)   bands (ev):

    -2.7915  13.7459  14.4988  17.1656  20.6937  21.9261

          k =-0.1250-0.2500 0.3750 (   464 PWs)   bands (ev):

    -1.0147   9.3252  12.5714  15.7740  19.8962  21.8778

          k =-0.1250 0.6250-0.5000 (   465 PWs)   bands (ev):

     1.6023   5.1474  11.7437  15.0257  19.2021  21.7578

          k =-0.2500 0.7500-0.5000 (   468 PWs)   bands (ev):

     1.1780   7.7948   8.4274  14.6696  21.1882  22.3700

          k =-0.2500 0.6250-0.3750 (   467 PWs)   bands (ev):

     3.8535   4.6121   7.7304  14.2907  21.2844  23.8228

          k = 0.0000 0.0000 0.2500 (   454 PWs)   bands (ev):

    -3.2385  15.9188  15.9188  16.9864  20.1361  22.5496

          k = 0.0000-0.1250 0.3750 (   462 PWs)   bands (ev):

    -1.9003  11.7243  14.0028  16.1220  19.1167  21.2096

          k = 0.0000-0.2500 0.5000 (   464 PWs)   bands (ev):

     0.3053   7.2472  12.8132  15.1722  19.9561  20.0418

          k = 0.0000 0.6250-0.3750 (   456 PWs)   bands (ev):

     3.0136   3.7524  12.4136  14.8014  19.6393  20.3696

          k =-0.1250-0.1250 0.5000 (   459 PWs)   bands (ev):

    -0.1317   9.8492  10.3917  16.1242  18.1061  20.7346

          k =-0.1250 0.7500-0.3750 (   460 PWs)   bands (ev):

     2.4716   5.9795   9.3226  15.9303  19.0415  20.6102

          k =-0.2500 0.2500 0.2500 (   471 PWs)   bands (ev):

    -1.4572  11.5129  12.6490  12.6490  23.4979  23.4979

          k =-0.2500 0.7500-0.2500 (   454 PWs)   bands (ev):

     4.8912   5.8653   5.8653  16.8489  20.0326  20.0326

          k = 0.6250-0.6250 0.2500 (   466 PWs)   bands (ev):

     0.7421   7.6501  10.7430  11.4460  23.7562  24.0128

          k = 0.5000-0.5000 0.2500 (   460 PWs)   bands (ev):

     3.4332   4.1904  10.3013  11.0367  23.6998  23.8190

          k = 0.5000-0.6250 0.3750 (   465 PWs)   bands (ev):

     3.3165   6.5463   7.1866  10.3081  25.4530  26.8165

          k = 0.0000 0.0000 0.5000 (   458 PWs)   bands (ev):

    -0.5711  12.0585  12.0585  13.4888  15.6381  26.1092

          k = 0.0000-0.1250 0.6250 (   459 PWs)   bands (ev):

     1.6185   8.4347  10.8528  13.0421  15.8655  21.9788

          k = 0.0000 0.7500-0.2500 (   452 PWs)   bands (ev):

     4.3151   5.0087  10.4480  12.7286  17.8154  19.2036

          k =-0.1250 0.8750-0.2500 (   461 PWs)   bands (ev):

     4.1837   7.3899   7.8687  13.9730  15.5240  18.2564

          k = 0.5000-0.5000 0.5000 (   456 PWs)   bands (ev):

     5.4283   6.7678   6.7678   6.7678  29.3866  29.3866

          k = 0.0000 0.0000 0.7500 (   454 PWs)   bands (ev):

     3.7749   9.6404   9.6404  11.0854  12.9069  17.7864

          k = 0.0000 0.8750-0.1250 (   466 PWs)   bands (ev):

     6.4239   7.0228   9.2337  11.2586  13.8382  14.6508

          k = 0.0000 0.0000-1.0000 (   466 PWs)   bands (ev):

     8.8265   8.8265   8.8265   9.5334  11.9935  11.9935

     the Fermi energy is     9.3266 ev

!    total energy              =     -46.68418023 Ry
     Harris-Foulkes estimate   =     -46.68418023 Ry
     estimated scf accuracy    <          2.0E-10 Ry

     total all-electron energy =       -46.684180 Ry

     The total energy is the sum of the following terms:

     one-electron contribution =       4.65195073 Ry
     hartree contribution      =       0.04294140 Ry
     xc contribution           =      -2.78647947 Ry
     ewald contribution        =      -9.70462259 Ry
     one-center paw contrib.   =     -38.88743829 Ry
     smearing contrib. (-TS)   =      -0.00053201 Ry

     convergence has been achieved in   5 iterations

     negative rho (up, down):  1.751E-03 0.000E+00

     Forces acting on atoms (cartesian axes, Ry/au):

     atom    1 type  1   force =     0.00000000    0.00000000    0.00000000

     Total force =     0.000000     Total SCF correction =     0.000000


     Computing stress (Cartesian axis) and pressure


     negative rho (up, down):  1.751E-03 0.000E+00
          total   stress  (Ry/bohr**3)                   (kbar)     P=  -73.31
  -0.00049837   0.00000000  -0.00000000        -73.31      0.00     -0.00
   0.00000000  -0.00049837   0.00000000          0.00    -73.31      0.00
  -0.00000000   0.00000000  -0.00049837         -0.00      0.00    -73.31


     BFGS Geometry Optimization

     number of scf cycles    =   1
     number of bfgs steps    =   0

     enthalpy new            =     -46.6841802256 Ry

     new trust radius        =       0.0258959170 bohr
     new conv_thr            =       0.0000000100 Ry

     new unit-cell volume =    104.01331 a.u.^3 (    15.41318 Ang^3 )
     density =      3.02579 g/cm^3

CELL_PARAMETERS (alat=  6.00000000)
   0.493770410   0.493770410   0.493770410
  -0.493770410   0.493770410   0.493770410
  -0.493770410  -0.493770410   0.493770410

ATOMIC_POSITIONS (alat)
Si       0.000000000   0.000000000   0.000000000



     Writing output data file relax.save/
     Check: negative starting charge=   -0.001530
     NEW-OLD atomic charge density approx. for the potential
     Check: negative starting charge=   -0.001443

     negative rho (up, down):  1.629E-03 0.000E+00
     extrapolated charge    3.84671, renormalised to    4.00000

     total cpu time spent up to now is        1.4 secs

     Self-consistent Calculation

     iteration #  1     ecut=    40.00 Ry     beta= 0.70
     Davidson diagonalization with overlap
     ethr =  1.00E-06,  avg # of iterations =  3.9

     negative rho (up, down):  1.617E-03 0.000E+00

     total cpu time spent up to now is        1.4 secs

     total energy              =     -46.68582858 Ry
     Harris-Foulkes estimate   =     -46.54962342 Ry
     estimated scf accuracy    <       0.00002129 Ry

     iteration #  2     ecut=    40.00 Ry     beta= 0.70
     Davidson diagonalization with overlap
     ethr =  5.32E-07,  avg # of iterations =  2.0

     negative rho (up, down):  1.604E-03 0.000E+00

     total cpu time spent up to now is        1.5 secs

     total energy              =     -46.68583847 Ry
     Harris-Foulkes estimate   =     -46.68584390 Ry
     estimated scf accuracy    <       0.00000070 Ry

     iteration #  3     ecut=    40.00 Ry     beta= 0.70
     Davidson diagonalization with overlap
     ethr =  1.76E-08,  avg # of iterations =  3.8

     negative rho (up, down):  1.648E-03 0.000E+00

     total cpu time spent up to now is        1.6 secs

     total energy              =     -46.68583978 Ry
     Harris-Foulkes estimate   =     -46.68583988 Ry
     estimated scf accuracy    <       0.00000005 Ry

     iteration #  4     ecut=    40.00 Ry     beta= 0.70
     Davidson diagonalization with overlap
     ethr =  1.14E-09,  avg # of iterations =  3.3

     negative rho (up, down):  1.675E-03 0.000E+00

     total cpu time spent up to now is        1.6 secs

     End of self-consistent calculation

          k = 0.0000 0.0000 0.0000 (   459 PWs)   bands (ev):

    -3.9775  20.4979  20.4979  20.4979  22.3213  22.3213

          k = 0.0000-0.1266 0.1266 (   459 PWs)   bands (ev):

    -3.5163  16.9972  18.4655  19.9518  21.0360  22.6409

          k = 0.0000-0.2532 0.2532 (   457 PWs)   bands (ev):

    -2.1393  11.9432  16.5203  18.7982  19.1679  20.9517

          k = 0.0000-0.3797 0.3797 (   464 PWs)   bands (ev):

     0.1323   7.2688  15.3389  17.8634  17.9105  19.7835

          k = 0.0000 0.5063-0.5063 (   444 PWs)   bands (ev):

     2.9876   3.5950  14.9446  17.4790  17.5241  19.3807

          k =-0.1266-0.1266 0.2532 (   457 PWs)   bands (ev):

    -2.5972  14.4306  15.0851  17.8854  21.4602  22.6686

          k =-0.1266-0.2532 0.3797 (   464 PWs)   bands (ev):

    -0.7722   9.8327  13.1492  16.4307  20.6289  22.6695

          k =-0.1266 0.6329-0.5063 (   465 PWs)   bands (ev):

     1.9230   5.5286  12.3053  15.6549  19.9094  22.5577

          k =-0.2532 0.7595-0.5063 (   468 PWs)   bands (ev):

     1.4826   8.3169   8.8249  15.2948  22.0204  23.0940

          k =-0.2532 0.6329-0.3797 (   467 PWs)   bands (ev):

     4.3142   4.9095   8.1640  14.9047  22.0903  24.6520

          k = 0.0000 0.0000 0.2532 (   454 PWs)   bands (ev):

    -3.0561  16.5973  16.5973  17.8453  20.7198  23.2310

          k = 0.0000-0.1266 0.3797 (   462 PWs)   bands (ev):

    -1.6821  12.2960  14.6201  16.8760  19.7549  21.8985

          k = 0.0000-0.2532 0.5063 (   464 PWs)   bands (ev):

     0.5843   7.6911  13.3983  15.8530  20.7035  20.7056

          k = 0.0000 0.6329-0.3797 (   456 PWs)   bands (ev):

     3.4385   4.0287  12.9883  15.4637  20.2913  21.1617

          k =-0.1266-0.1266 0.5063 (   459 PWs)   bands (ev):

     0.1345  10.4165  10.8556  16.9125  18.6868  21.4320

          k =-0.1266 0.7595-0.3797 (   460 PWs)   bands (ev):

     2.8160   6.3866   9.8041  16.6670  19.7095  21.3105

          k =-0.2532 0.2532 0.2532 (   471 PWs)   bands (ev):

    -1.2267  12.1842  13.1610  13.1610  24.4023  24.4023

          k =-0.2532 0.7595-0.2532 (   454 PWs)   bands (ev):

     5.4286   6.1975   6.1975  17.6710  20.6747  20.6747

          k = 0.6329-0.6329 0.2532 (   466 PWs)   bands (ev):

     1.0342   8.1177  11.3067  11.9185  24.6318  24.8913

          k = 0.5063-0.5063 0.2532 (   460 PWs)   bands (ev):

     3.8767   4.4764  10.8654  11.4965  24.5540  24.6854

          k = 0.5063-0.6329 0.3797 (   465 PWs)   bands (ev):

     3.6952   7.0290   7.5480  10.7961  26.4155  27.7116

          k = 0.0000 0.0000 0.5063 (   458 PWs)   bands (ev):

    -0.3173  12.6136  12.6136  14.2681  16.1027  25.9347

          k = 0.0000-0.1266 0.6329 (   459 PWs)   bands (ev):

     1.9327   8.9136  11.3756  13.6997  16.4342  22.7271

          k = 0.0000 0.7595-0.2532 (   452 PWs)   bands (ev):

     4.7763   5.3196  10.9606  13.3462  18.5288  19.8215

          k =-0.1266 0.8860-0.2532 (   461 PWs)   bands (ev):

     4.5781   7.8800   8.2653  14.7228  16.0341  18.8889

          k = 0.5063-0.5063 0.5063 (   456 PWs)   bands (ev):

     6.0469   7.1176   7.1176   7.1176  30.4594  30.4595

          k = 0.0000 0.0000 0.7595 (   454 PWs)   bands (ev):

     4.1489  10.1311  10.1311  11.8141  13.3003  18.4222

          k = 0.0000 0.8860-0.1266 (   466 PWs)   bands (ev):

     6.9419   7.3974   9.7141  11.9036  14.3864  15.1383

          k = 0.0000 0.0000-1.0126 (   466 PWs)   bands (ev):

     9.2967   9.2967   9.2967  10.3775  12.3631  12.3631

     the Fermi energy is     9.8211 ev

!    total energy              =     -46.68583991 Ry
     Harris-Foulkes estimate   =     -46.68583988 Ry
     estimated scf accuracy    <          5.6E-09 Ry

     total all-electron energy =       -46.685840 Ry

     The total energy is the sum of the following terms:

     one-electron contribution =       4.80387307 Ry
     hartree contribution      =       0.03729571 Ry
     xc contribution           =      -2.81038241 Ry
     ewald contribution        =      -9.82705966 Ry
     one-center paw contrib.   =     -38.88906363 Ry
     smearing contrib. (-TS)   =      -0.00050299 Ry

     convergence has been achieved in   4 iterations

     negative rho (up, down):  1.675E-03 0.000E+00

     Forces acting on atoms (cartesian axes, Ry/au):

     atom    1 type  1   force =     0.00000000    0.00000000    0.00000000

     Total force =     0.000000     Total SCF correction =     0.000000


     Computing stress (Cartesian axis) and pressure


     negative rho (up, down):  1.675E-03 0.000E+00
          total   stress  (Ry/bohr**3)                   (kbar)     P=  -48.05
  -0.00032663  -0.00000000  -0.00000000        -48.05     -0.00     -0.00
  -0.00000000  -0.00032663  -0.00000000         -0.00    -48.05     -0.00
   0.00000000  -0.00000000  -0.00032663          0.00     -0.00    -48.05


     number of scf cycles    =   2
     number of bfgs steps    =   1

     enthalpy old            =     -46.6841802256 Ry
     enthalpy new            =     -46.6858399111 Ry

     CASE: enthalpy_new < enthalpy_old

     new trust radius        =       0.0386011357 bohr
     new conv_thr            =            1.0E-10 Ry

     new unit-cell volume =     98.21914 a.u.^3 (    14.55458 Ang^3 )
     density =      3.20429 g/cm^3

CELL_PARAMETERS (alat=  6.00000000)
   0.484426026   0.484426026   0.484426026
  -0.484426026   0.484426026   0.484426026
  -0.484426026  -0.484426026   0.484426026

ATOMIC_POSITIONS (alat)
Si       0.000000000   0.000000000   0.000000000



     Writing output data file relax.save/
     Check: negative starting charge=   -0.001443
     NEW-OLD atomic charge density approx. for the potential
     Check: negative starting charge=   -0.001307

     negative rho (up, down):  1.475E-03 0.000E+00
     extrapolated charge    3.76407, renormalised to    4.00000

     total cpu time spent up to now is        1.9 secs

     Self-consistent Calculation

     iteration #  1     ecut=    40.00 Ry     beta= 0.70
     Davidson diagonalization with overlap
     ethr =  1.00E-06,  avg # of iterations =  4.0

     negative rho (up, down):  1.458E-03 0.000E+00

     total cpu time spent up to now is        2.0 secs

     total energy              =     -46.68678328 Ry
     Harris-Foulkes estimate   =     -46.47390934 Ry
     estimated scf accuracy    <       0.00005614 Ry

     iteration #  2     ecut=    40.00 Ry     beta= 0.70
     Davidson diagonalization with overlap
     ethr =  1.40E-06,  avg # of iterations =  2.0

     negative rho (up, down):  1.449E-03 0.000E+00

     total cpu time spent up to now is        2.1 secs

     total energy              =     -46.68679868 Ry
     Harris-Foulkes estimate   =     -46.68681045 Ry
     estimated scf accuracy    <       0.00000063 Ry

     iteration #  3     ecut=    40.00 Ry     beta= 0.70
     Davidson diagonalization with overlap
     ethr =  1.57E-08,  avg # of iterations =  4.0

     negative rho (up, down):  1.535E-03 0.000E+00

     total cpu time spent up to now is        2.2 secs

     total energy              =     -46.68680239 Ry
     Harris-Foulkes estimate   =     -46.68680220 Ry
     estimated scf accuracy    <       0.00000015 Ry

     iteration #  4     ecut=    40.00 Ry     beta= 0.70
     Davidson diagonalization with overlap
     ethr =  3.66E-09,  avg # of iterations =  3.1

     negative rho (up, down):  1.558E-03 0.000E+00

     total cpu time spent up to now is        2.3 secs

     total energy              =     -46.68680262 Ry
     Harris-Foulkes estimate   =     -46.68680263 Ry
     estimated scf accuracy    <          7.3E-09 Ry

     iteration #  5     ecut=    40.00 Ry     beta= 0.70
     Davidson diagonalization with overlap
     ethr =  1.82E-10,  avg # of iterations =  2.0

     negative rho (up, down):  1.568E-03 0.000E+00

     total cpu time spent up to now is        2.4 secs

     total energy              =     -46.68680263 Ry
     Harris-Foulkes estimate   =     -46.68680263 Ry
     estimated scf accuracy    <          4.7E-10 Ry

     iteration #  6     ecut=    40.00 Ry     beta= 0.70
     Davidson diagonalization with overlap
     ethr =  1.19E-11,  avg # of iterations =  3.0

     negative rho (up, down):  1.568E-03 0.000E+00

     total cpu time spent up to now is        2.6 secs

     End of self-consistent calculation

          k = 0.0000 0.0000 0.0000 (   459 PWs)   bands (ev):

    -3.7247  21.9913  21.9913  21.9913  23.3602  23.3602

          k = 0.0000-0.1290 0.1290 (   459 PWs)   bands (ev):

    -3.2448  18.1275  19.7029  21.3538  22.0071  23.8643

          k = 0.0000-0.2580 0.2580 (   457 PWs)   bands (ev):

    -1.8121  12.8237  17.6723  20.0536  20.0559  22.1332

          k = 0.0000-0.3871 0.3871 (   464 PWs)   bands (ev):

     0.5528   7.9521  16.4492  18.7423  19.0374  20.9436

          k = 0.0000 0.5161-0.5161 (   444 PWs)   bands (ev):

     3.6355   4.0179  16.0418  18.2925  18.6723  20.5318

          k =-0.1290-0.1290 0.2580 (   457 PWs)   bands (ev):

    -2.2885  15.5085  16.0030  19.0095  22.6939  23.8312

          k =-0.1290-0.2580 0.3871 (   464 PWs)   bands (ev):

    -0.3894  10.6293  14.0636  17.4643  21.7922  23.9245

          k =-0.1290 0.6451-0.5161 (   465 PWs)   bands (ev):

     2.4225   6.1364  13.1928  16.6484  21.0310  23.8254

          k =-0.2580 0.7741-0.5161 (   468 PWs)   bands (ev):

     1.9592   9.1473   9.4526  16.2833  23.3452  24.2335

          k =-0.2580 0.6451-0.3871 (   467 PWs)   bands (ev):

     5.0313   5.3821   8.8591  15.8764  23.3601  25.9748

          k = 0.0000 0.0000 0.2580 (   454 PWs)   bands (ev):

    -2.7661  17.6620  17.6620  19.2086  21.6389  24.3073

          k = 0.0000-0.1290 0.3871 (   462 PWs)   bands (ev):

    -1.3366  13.1921  15.5921  18.0607  20.7773  22.9904

          k = 0.0000-0.2580 0.5161 (   464 PWs)   bands (ev):

     1.0228   8.3923  14.3211  16.9239  21.7546  21.8991

          k = 0.0000 0.6451-0.3871 (   456 PWs)   bands (ev):

     4.1049   4.4688  13.8953  16.5071  21.3278  22.4210

          k =-0.1290-0.1290 0.5161 (   459 PWs)   bands (ev):

     0.5537  11.3134  11.5861  18.1652  19.6041  22.5376

          k =-0.1290 0.7741-0.3871 (   460 PWs)   bands (ev):

     3.3514   7.0331  10.5706  17.8220  20.7760  22.4227

          k =-0.2580 0.2580 0.2580 (   471 PWs)   bands (ev):

    -0.8625  13.2532  13.9650  13.9650  25.8425  25.8425

          k =-0.2580 0.7741-0.2580 (   454 PWs)   bands (ev):

     6.2758   6.7242   6.7242  18.9722  21.6881  21.6881

          k = 0.6451-0.6451 0.2580 (   466 PWs)   bands (ev):

     1.4920   8.8507  12.2153  12.6617  26.0152  26.2779

          k = 0.5161-0.5161 0.2580 (   460 PWs)   bands (ev):

     4.5697   4.9316  11.7713  12.2203  25.9014  26.0532

          k = 0.5161-0.6451 0.3871 (   465 PWs)   bands (ev):

     4.2772   7.8058   8.1199  11.5778  27.9398  29.1146

          k = 0.0000 0.0000 0.5161 (   458 PWs)   bands (ev):

     0.0831  13.4910  13.4910  15.5075  16.8344  27.1238

          k = 0.0000-0.1290 0.6451 (   459 PWs)   bands (ev):

     2.4249   9.6672  12.2036  14.7249  17.3583  23.9163

          k = 0.0000 0.7741-0.2580 (   452 PWs)   bands (ev):

     5.4967   5.8133  11.7727  14.3137  19.6836  20.7973

          k =-0.1290 0.9031-0.2580 (   461 PWs)   bands (ev):

     5.1872   8.6644   8.8917  15.9140  16.8418  19.9020

          k = 0.5161-0.5161 0.5161 (   456 PWs)   bands (ev):

     7.0316   7.6716   7.6716   7.6716  32.1564  32.1565

          k = 0.0000 0.0000 0.7741 (   454 PWs)   bands (ev):

     4.7313  10.9099  10.9099  12.9735  13.9200  19.4417

          k = 0.0000 0.9031-0.1290 (   466 PWs)   bands (ev):

     7.7429   7.9900  10.4773  12.8960  15.3119  15.9107

          k = 0.0000 0.0000-1.0321 (   466 PWs)   bands (ev):

    10.0442  10.0442  10.0442  11.7243  12.9455  12.9455

     the Fermi energy is    10.6031 ev

!    total energy              =     -46.68680263 Ry
     Harris-Foulkes estimate   =     -46.68680263 Ry
     estimated scf accuracy    <          4.8E-11 Ry

     total all-electron energy =       -46.686803 Ry

     The total energy is the sum of the following terms:

     one-electron contribution =       5.04074213 Ry
     hartree contribution      =       0.03004314 Ry
     xc contribution           =      -2.84836332 Ry
     ewald contribution        =     -10.01661969 Ry
     one-center paw contrib.   =     -38.89217531 Ry
     smearing contrib. (-TS)   =      -0.00042958 Ry

     convergence has been achieved in   6 iterations

     negative rho (up, down):  1.568E-03 0.000E+00

     Forces acting on atoms (cartesian axes, Ry/au):

     atom    1 type  1   force =     0.00000000    0.00000000    0.00000000

     Total force =     0.000000     Total SCF correction =     0.000000


     Computing stress (Cartesian axis) and pressure


     negative rho (up, down):  1.568E-03 0.000E+00
          total   stress  (Ry/bohr**3)                   (kbar)     P=    2.11
   0.00001432  -0.00000000   0.00000000          2.11     -0.00      0.00
  -0.00000000   0.00001432  -0.00000000         -0.00      2.11     -0.00
   0.00000000  -0.00000000   0.00001432          0.00     -0.00      2.11


     number of scf cycles    =   3
     number of bfgs steps    =   2

     enthalpy old            =     -46.6858399111 Ry
     enthalpy new            =     -46.6868026288 Ry

     CASE: enthalpy_new < enthalpy_old

     new trust radius        =       0.0015483554 bohr
     new conv_thr            =            1.0E-10 Ry

     new unit-cell volume =     98.44950 a.u.^3 (    14.58871 Ang^3 )
     density =      3.19679 g/cm^3

CELL_PARAMETERS (alat=  6.00000000)
   0.484804443   0.484804443   0.484804443
  -0.484804443   0.484804443   0.484804443
  -0.484804443  -0.484804443   0.484804443

ATOMIC_POSITIONS (alat)
Si       0.000000000   0.000000000   0.000000000



     Writing output data file relax.save/
     Check: negative starting charge=   -0.001307
     NEW-OLD atomic charge density approx. for the potential
     Check: negative starting charge=   -0.001312

     negative rho (up, down):  1.576E-03 0.000E+00
     extrapolated charge    4.00936, renormalised to    4.00000

     total cpu time spent up to now is        2.9 secs

     Self-consistent Calculation

     iteration #  1     ecut=    40.00 Ry     beta= 0.70
     Davidson diagonalization with overlap
     ethr =  1.00E-06,  avg # of iterations =  2.0

     Threshold (ethr) on eigenvalues was too large:
     Diagonalizing with lowered threshold

     Davidson diagonalization with overlap
     ethr =  1.06E-09,  avg # of iterations =  3.0

     negative rho (up, down):  1.577E-03 0.000E+00

     total cpu time spent up to now is        3.0 secs

     total energy              =     -46.68680407 Ry
     Harris-Foulkes estimate   =     -46.69533410 Ry
     estimated scf accuracy    <       0.00000004 Ry

     iteration #  2     ecut=    40.00 Ry     beta= 0.70
     Davidson diagonalization with overlap
     ethr =  1.06E-09,  avg # of iterations =  2.4

     negative rho (up, down):  1.577E-03 0.000E+00

     total cpu time spent up to now is        3.1 secs

     total energy              =     -46.68680409 Ry
     Harris-Foulkes estimate   =     -46.68680411 Ry
     estimated scf accuracy    <          2.2E-09 Ry

     iteration #  3     ecut=    40.00 Ry     beta= 0.70
     Davidson diagonalization with overlap
     ethr =  5.54E-11,  avg # of iterations =  3.7

     negative rho (up, down):  1.574E-03 0.000E+00

     total cpu time spent up to now is        3.2 secs

     total energy              =     -46.68680410 Ry
     Harris-Foulkes estimate   =     -46.68680410 Ry
     estimated scf accuracy    <          2.1E-10 Ry

     iteration #  4     ecut=    40.00 Ry     beta= 0.70
     Davidson diagonalization with overlap
     ethr =  5.16E-12,  avg # of iterations =  3.5

     negative rho (up, down):  1.573E-03 0.000E+00

     total cpu time spent up to now is        3.2 secs

     End of self-consistent calculation

          k = 0.0000 0.0000 0.0000 (   459 PWs)   bands (ev):

    -3.7353  21.9287  21.9287  21.9287  23.3168  23.3168

          k = 0.0000-0.1289 0.1289 (   459 PWs)   bands (ev):

    -3.2562  18.0806  19.6514  21.2953  21.9666  23.8130

          k = 0.0000-0.2578 0.2578 (   457 PWs)   bands (ev):

    -1.8258  12.7871  17.6242  20.0036  20.0167  22.0837

          k = 0.0000-0.3868 0.3868 (   464 PWs)   bands (ev):

     0.5353   7.9236  16.4027  18.7076  18.9885  20.8950

          k = 0.0000 0.5157-0.5157 (   444 PWs)   bands (ev):

     3.6086   4.0001  15.9959  18.2586  18.6245  20.4836

          k =-0.1289-0.1289 0.2578 (   457 PWs)   bands (ev):

    -2.3014  15.4637  15.9649  18.9629  22.6419  23.7829

          k =-0.1289-0.2578 0.3868 (   464 PWs)   bands (ev):

    -0.4054  10.5962  14.0254  17.4212  21.7435  23.8720

          k =-0.1289 0.6446-0.5157 (   465 PWs)   bands (ev):

     2.4018   6.1109  13.1558  16.6070  20.9841  23.7724

          k =-0.2578 0.7735-0.5157 (   468 PWs)   bands (ev):

     1.9394   9.1125   9.4264  16.2420  23.2897  24.1860

          k =-0.2578 0.6446-0.3868 (   467 PWs)   bands (ev):

     5.0016   5.3623   8.8299  15.8358  23.3072  25.9193

          k = 0.0000 0.0000 0.2578 (   454 PWs)   bands (ev):

    -2.7782  17.6177  17.6177  19.1516  21.6007  24.2624

          k = 0.0000-0.1289 0.3868 (   462 PWs)   bands (ev):

    -1.3510  13.1549  15.5517  18.0115  20.7342  22.9448

          k = 0.0000-0.2578 0.5157 (   464 PWs)   bands (ev):

     1.0046   8.3631  14.2827  16.8793  21.7106  21.8491

          k = 0.0000 0.6446-0.3868 (   456 PWs)   bands (ev):

     4.0772   4.4504  13.8575  16.4636  21.2844  22.3683

          k =-0.1289-0.1289 0.5157 (   459 PWs)   bands (ev):

     0.5362  11.2759  11.5557  18.1128  19.5658  22.4914

          k =-0.1289 0.7735-0.3868 (   460 PWs)   bands (ev):

     3.3293   7.0060  10.5385  17.7740  20.7312  22.3761

          k =-0.2578 0.2578 0.2578 (   471 PWs)   bands (ev):

    -0.8777  13.2084  13.9316  13.9316  25.7821  25.7821

          k =-0.2578 0.7735-0.2578 (   454 PWs)   bands (ev):

     6.2405   6.7022   6.7022  18.9179  21.6459  21.6459

          k = 0.6446-0.6446 0.2578 (   466 PWs)   bands (ev):

     1.4730   8.8203  12.1769  12.6307  25.9575  26.2201

          k = 0.5157-0.5157 0.2578 (   460 PWs)   bands (ev):

     4.5410   4.9126  11.7331  12.1901  25.8453  25.9962

          k = 0.5157-0.6446 0.3868 (   465 PWs)   bands (ev):

     4.2533   7.7731   8.0961  11.5449  27.8761  29.0563

          k = 0.0000 0.0000 0.5157 (   458 PWs)   bands (ev):

     0.0664  13.4544  13.4544  15.4556  16.8039  27.0742

          k = 0.0000-0.1289 0.6446 (   459 PWs)   bands (ev):

     2.4045   9.6358  12.1690  14.6825  17.3191  23.8665

          k = 0.0000 0.7735-0.2578 (   452 PWs)   bands (ev):

     5.4669   5.7926  11.7388  14.2736  19.6347  20.7566

          k =-0.1289 0.9024-0.2578 (   461 PWs)   bands (ev):

     5.1621   8.6315   8.8655  15.8642  16.8081  19.8593

          k = 0.5157-0.5157 0.5157 (   456 PWs)   bands (ev):

     6.9903   7.6484   7.6484   7.6484  32.0856  32.0856

          k = 0.0000 0.0000 0.7735 (   454 PWs)   bands (ev):

     4.7072  10.8773  10.8773  12.9250  13.8941  19.3988

          k = 0.0000 0.9024-0.1289 (   466 PWs)   bands (ev):

     7.7098   7.9653  10.4453  12.8554  15.2716  15.8785

          k = 0.0000 0.0000-1.0313 (   466 PWs)   bands (ev):

    10.0129  10.0129  10.0129  11.6678  12.9213  12.9213

     the Fermi energy is    10.5705 ev

!    total energy              =     -46.68680410 Ry
     Harris-Foulkes estimate   =     -46.68680410 Ry
     estimated scf accuracy    <          1.4E-11 Ry

     total all-electron energy =       -46.686804 Ry

     The total energy is the sum of the following terms:

     one-electron contribution =       5.03093156 Ry
     hartree contribution      =       0.03030943 Ry
     xc contribution           =      -2.84677519 Ry
     ewald contribution        =     -10.00880117 Ry
     one-center paw contrib.   =     -38.89203630 Ry
     smearing contrib. (-TS)   =      -0.00043243 Ry

     convergence has been achieved in   4 iterations

     negative rho (up, down):  1.573E-03 0.000E+00

     Forces acting on atoms (cartesian axes, Ry/au):

     atom    1 type  1   force =     0.00000000    0.00000000    0.00000000

     Total force =     0.000000     Total SCF correction =     0.000000


     Computing stress (Cartesian axis) and pressure


     negative rho (up, down):  1.573E-03 0.000E+00
          total   stress  (Ry/bohr**3)                   (kbar)     P=   -0.23
  -0.00000159   0.00000000  -0.00000000         -0.23      0.00     -0.00
   0.00000000  -0.00000159   0.00000000          0.00     -0.23      0.00
  -0.00000000   0.00000000  -0.00000159         -0.00      0.00     -0.23


     bfgs converged in   4 scf cycles and   3 bfgs steps
     (criteria: energy <  1.0E-04 Ry, force <  1.0E-03Ry/Bohr, cell <  5.0E-01kbar)

     End of BFGS Geometry Optimization

     Final enthalpy =     -46.6868041001 Ry
Begin final coordinates
     new unit-cell volume =     98.44950 a.u.^3 (    14.58871 Ang^3 )
     density =      3.19679 g/cm^3

CELL_PARAMETERS (alat=  6.00000000)
   0.484804443   0.484804443   0.484804443
  -0.484804443   0.484804443   0.484804443
  -0.484804443  -0.484804443   0.484804443

ATOMIC_POSITIONS (alat)
Si       0.000000000   0.000000000   0.000000000
End final coordinates



     Writing output data file relax.save/

     A final scf calculation at the relaxed structure.
     The G-vectors are recalculated for the final unit cell
     Results may differ from those at the preceding step.
 
     Parallelization info
     --------------------
     sticks:   dense  smooth     PW     G-vecs:    dense   smooth      PW
     Min          95      76     24                 1181      841     167
     Max          96      77     25                 1183      842     170
     Sum         383     307     99                 4729     3367     675
 


     bravais-lattice index     =            3
     lattice parameter (alat)  =       6.0000  a.u.
     unit-cell volume          =      98.4495 (a.u.)^3
     number of atoms/cell      =            1
     number of atomic types    =            1
     number of electrons       =         4.00
     number of Kohn-Sham states=            6
     kinetic-energy cutoff     =      40.0000  Ry
     charge density cutoff     =     200.0000  Ry
     convergence threshold     =      1.0E-10
     mixing beta               =       0.7000
     number of iterations used =            8  plain     mixing
     Exchange-correlation      = SLA PW PBX PBC ( 1  4  3  4 0 0)

     celldm(1)=   6.000000  celldm(2)=   0.000000  celldm(3)=   0.000000
     celldm(4)=   0.000000  celldm(5)=   0.000000  celldm(6)=   0.000000

     crystal axes: (cart. coord. in units of alat)
               a(1) = (   0.484804   0.484804   0.484804 )  
               a(2) = (  -0.484804   0.484804   0.484804 )  
               a(3) = (  -0.484804  -0.484804   0.484804 )  

     reciprocal axes: (cart. coord. in units 2 pi/alat)
               b(1) = (  1.031344  0.000000  1.031344 )  
               b(2) = ( -1.031344  1.031344  0.000000 )  
               b(3) = (  0.000000 -1.031344  1.031344 )  


     PseudoPot. # 1 for Si read from file:
     ./Si.GGA-PBE-paw.UPF
     MD5 check sum: 55a399ac9c9f37f95204fc9e5818eb3e
     Pseudo is Projector augmented-wave + core cor, Zval =  4.0
     Generated using ATOMPAW code
     Shape of augmentation charge: BESSEL
     Using radial grid of 2342 points,  4 beta functions with: 
                l(1) =   0
                l(2) =   0
                l(3) =   1
                l(4) =   1
     Q(r) pseudized with 0 coefficients 


     atomic species   valence    mass     pseudopotential
        Si             4.00    28.08550     Si( 1.00)

     48 Sym. Ops., with inversion, found



   Cartesian axes

     site n.     atom                  positions (alat units)
         1           Si  tau(   1) = (   0.0000000   0.0000000   0.0000000  )

     number of k points=    29  Fermi-Dirac smearing, width (Ry)=  0.0020
                       cart. coord. in units 2pi/alat
        k(    1) = (   0.0000000   0.0000000   0.0000000), wk =   0.0039062
        k(    2) = (   0.0000000  -0.1289180   0.1289180), wk =   0.0468750
        k(    3) = (   0.0000000  -0.2578359   0.2578359), wk =   0.0468750
        k(    4) = (   0.0000000  -0.3867539   0.3867539), wk =   0.0468750
        k(    5) = (   0.0000000   0.5156718  -0.5156718), wk =   0.0234375
        k(    6) = (  -0.1289180  -0.1289180   0.2578359), wk =   0.0937500
        k(    7) = (  -0.1289180  -0.2578359   0.3867539), wk =   0.1875000
        k(    8) = (  -0.1289180   0.6445898  -0.5156718), wk =   0.1875000
        k(    9) = (  -0.2578359   0.7735078  -0.5156718), wk =   0.0937500
        k(   10) = (  -0.2578359   0.6445898  -0.3867539), wk =   0.0937500
        k(   11) = (   0.0000000   0.0000000   0.2578359), wk =   0.0234375
        k(   12) = (   0.0000000  -0.1289180   0.3867539), wk =   0.0937500
        k(   13) = (   0.0000000  -0.2578359   0.5156718), wk =   0.0937500
        k(   14) = (   0.0000000   0.6445898  -0.3867539), wk =   0.0468750
        k(   15) = (  -0.1289180  -0.1289180   0.5156718), wk =   0.0937500
        k(   16) = (  -0.1289180   0.7735078  -0.3867539), wk =   0.1875000
        k(   17) = (  -0.2578359   0.2578359   0.2578359), wk =   0.0312500
        k(   18) = (  -0.2578359   0.7735078  -0.2578359), wk =   0.0312500
        k(   19) = (   0.6445898  -0.6445898   0.2578359), wk =   0.0937500
        k(   20) = (   0.5156718  -0.5156718   0.2578359), wk =   0.0468750
        k(   21) = (   0.5156718  -0.6445898   0.3867539), wk =   0.0937500
        k(   22) = (   0.0000000   0.0000000   0.5156718), wk =   0.0234375
        k(   23) = (   0.0000000  -0.1289180   0.6445898), wk =   0.0937500
        k(   24) = (   0.0000000   0.7735078  -0.2578359), wk =   0.0468750
        k(   25) = (  -0.1289180   0.9024257  -0.2578359), wk =   0.0937500
        k(   26) = (   0.5156718  -0.5156718   0.5156718), wk =   0.0078125
        k(   27) = (   0.0000000   0.0000000   0.7735078), wk =   0.0234375
        k(   28) = (   0.0000000   0.9024257  -0.1289180), wk =   0.0468750
        k(   29) = (   0.0000000   0.0000000  -1.0313437), wk =   0.0039062

     Dense  grid:     4729 G-vectors     FFT dimensions: (  24,  24,  24)

     Smooth grid:     3367 G-vectors     FFT dimensions: (  24,  24,  24)

     Estimated max dynamical RAM per process >       2.56 MB

     Estimated total dynamical RAM >      10.24 MB

     Initial potential from superposition of free atoms
     Check: negative starting charge=   -0.001313

     starting charge    3.99937, renormalised to    4.00000

     negative rho (up, down):  1.313E-03 0.000E+00
     Starting wfcs are    8 randomized atomic wfcs
     Checking if some PAW data can be deallocated... 

     total cpu time spent up to now is        3.5 secs

     Self-consistent Calculation

     iteration #  1     ecut=    40.00 Ry     beta= 0.70
     Davidson diagonalization with overlap
     ethr =  1.00E-06,  avg # of iterations = 10.1

     negative rho (up, down):  1.339E-03 0.000E+00

     total cpu time spent up to now is        3.7 secs

     total energy              =     -46.68672441 Ry
     Harris-Foulkes estimate   =     -46.68794234 Ry
     estimated scf accuracy    <       0.00365906 Ry

     iteration #  2     ecut=    40.00 Ry     beta= 0.70
     Davidson diagonalization with overlap
     ethr =  9.15E-05,  avg # of iterations =  1.0

     negative rho (up, down):  1.449E-03 0.000E+00

     total cpu time spent up to now is        3.7 secs

     total energy              =     -46.68679124 Ry
     Harris-Foulkes estimate   =     -46.68683600 Ry
     estimated scf accuracy    <       0.00018588 Ry

     iteration #  3     ecut=    40.00 Ry     beta= 0.70
     Davidson diagonalization with overlap
     ethr =  4.65E-06,  avg # of iterations =  1.1

     negative rho (up, down):  1.504E-03 0.000E+00

     total cpu time spent up to now is        3.8 secs

     total energy              =     -46.68680034 Ry
     Harris-Foulkes estimate   =     -46.68680042 Ry
     estimated scf accuracy    <       0.00000124 Ry

     iteration #  4     ecut=    40.00 Ry     beta= 0.70
     Davidson diagonalization with overlap
     ethr =  3.11E-08,  avg # of iterations =  3.0

     negative rho (up, down):  1.506E-03 0.000E+00

     total cpu time spent up to now is        3.9 secs

     total energy              =     -46.68680194 Ry
     Harris-Foulkes estimate   =     -46.68680194 Ry
     estimated scf accuracy    <       0.00000004 Ry

     iteration #  5     ecut=    40.00 Ry     beta= 0.70
     Davidson diagonalization with overlap
     ethr =  8.96E-10,  avg # of iterations =  1.4

     negative rho (up, down):  1.561E-03 0.000E+00

     total cpu time spent up to now is        3.9 secs

     total energy              =     -46.68680201 Ry
     Harris-Foulkes estimate   =     -46.68680194 Ry
     estimated scf accuracy    <       0.00000003 Ry

     iteration #  6     ecut=    40.00 Ry     beta= 0.70
     Davidson diagonalization with overlap
     ethr =  8.61E-10,  avg # of iterations =  1.9

     negative rho (up, down):  1.567E-03 0.000E+00

     total cpu time spent up to now is        4.0 secs

     total energy              =     -46.68680201 Ry
     Harris-Foulkes estimate   =     -46.68680202 Ry
     estimated scf accuracy    <       0.00000001 Ry

     iteration #  7     ecut=    40.00 Ry     beta= 0.70
     Davidson diagonalization with overlap
     ethr =  3.60E-10,  avg # of iterations =  1.8

     negative rho (up, down):  1.568E-03 0.000E+00

     total cpu time spent up to now is        4.0 secs

     total energy              =     -46.68680201 Ry
     Harris-Foulkes estimate   =     -46.68680201 Ry
     estimated scf accuracy    <          2.7E-09 Ry

     iteration #  8     ecut=    40.00 Ry     beta= 0.70
     Davidson diagonalization with overlap
     ethr =  6.84E-11,  avg # of iterations =  1.0

     negative rho (up, down):  1.568E-03 0.000E+00

     total cpu time spent up to now is        4.1 secs

     total energy              =     -46.68680201 Ry
     Harris-Foulkes estimate   =     -46.68680201 Ry
     estimated scf accuracy    <          7.6E-10 Ry

     iteration #  9     ecut=    40.00 Ry     beta= 0.70
     Davidson diagonalization with overlap
     ethr =  1.91E-11,  avg # of iterations =  1.1

     negative rho (up, down):  1.569E-03 0.000E+00

     total cpu time spent up to now is        4.1 secs

     total energy              =     -46.68680201 Ry
     Harris-Foulkes estimate   =     -46.68680201 Ry
     estimated scf accuracy    <          3.5E-10 Ry

     iteration # 10     ecut=    40.00 Ry     beta= 0.70
     Davidson diagonalization with overlap
     ethr =  8.84E-12,  avg # of iterations =  1.2

     negative rho (up, down):  1.569E-03 0.000E+00

     total cpu time spent up to now is        4.2 secs

     End of self-consistent calculation

          k = 0.0000 0.0000 0.0000 (   429 PWs)   bands (ev):

    -3.7353  21.9287  21.9287  21.9287  23.3169  23.3169

          k = 0.0000-0.1289 0.1289 (   413 PWs)   bands (ev):

    -3.2562  18.0807  19.6514  21.2953  21.9666  23.8130

          k = 0.0000-0.2578 0.2578 (   418 PWs)   bands (ev):

    -1.8258  12.7871  17.6242  20.0036  20.0167  22.0838

          k = 0.0000-0.3868 0.3868 (   416 PWs)   bands (ev):

     0.5353   7.9236  16.4027  18.7077  18.9885  20.8950

          k = 0.0000 0.5157-0.5157 (   420 PWs)   bands (ev):

     3.6085   4.0001  15.9959  18.2587  18.6245  20.4836

          k =-0.1289-0.1289 0.2578 (   409 PWs)   bands (ev):

    -2.3015  15.4637  15.9649  18.9629  22.6420  23.7830

          k =-0.1289-0.2578 0.3868 (   420 PWs)   bands (ev):

    -0.4054  10.5961  14.0254  17.4212  21.7436  23.8721

          k =-0.1289 0.6446-0.5157 (   420 PWs)   bands (ev):

     2.4018   6.1109  13.1558  16.6070  20.9841  23.7725

          k =-0.2578 0.7735-0.5157 (   418 PWs)   bands (ev):

     1.9394   9.1125   9.4264  16.2420  23.2898  24.1861

          k =-0.2578 0.6446-0.3868 (   422 PWs)   bands (ev):

     5.0016   5.3623   8.8299  15.8358  23.3073  25.9195

          k = 0.0000 0.0000 0.2578 (   418 PWs)   bands (ev):

    -2.7782  17.6177  17.6177  19.1516  21.6007  24.2625

          k = 0.0000-0.1289 0.3868 (   419 PWs)   bands (ev):

    -1.3510  13.1549  15.5517  18.0115  20.7343  22.9448

          k = 0.0000-0.2578 0.5157 (   412 PWs)   bands (ev):

     1.0046   8.3631  14.2827  16.8793  21.7107  21.8491

          k = 0.0000 0.6446-0.3868 (   424 PWs)   bands (ev):

     4.0772   4.4504  13.8575  16.4636  21.2844  22.3683

          k =-0.1289-0.1289 0.5157 (   421 PWs)   bands (ev):

     0.5362  11.2759  11.5557  18.1128  19.5658  22.4915

          k =-0.1289 0.7735-0.3868 (   424 PWs)   bands (ev):

     3.3292   7.0060  10.5384  17.7740  20.7313  22.3762

          k =-0.2578 0.2578 0.2578 (   420 PWs)   bands (ev):

    -0.8777  13.2084  13.9316  13.9316  25.7823  25.7823

          k =-0.2578 0.7735-0.2578 (   427 PWs)   bands (ev):

     6.2404   6.7022   6.7022  18.9179  21.6459  21.6459

          k = 0.6446-0.6446 0.2578 (   418 PWs)   bands (ev):

     1.4730   8.8203  12.1769  12.6307  25.9576  26.2203

          k = 0.5157-0.5157 0.2578 (   428 PWs)   bands (ev):

     4.5410   4.9125  11.7331  12.1901  25.8454  25.9962

          k = 0.5157-0.6446 0.3868 (   429 PWs)   bands (ev):

     4.2533   7.7731   8.0960  11.5449  27.8763  29.0564

          k = 0.0000 0.0000 0.5157 (   426 PWs)   bands (ev):

     0.0664  13.4544  13.4544  15.4556  16.8039  27.0742

          k = 0.0000-0.1289 0.6446 (   424 PWs)   bands (ev):

     2.4045   9.6358  12.1690  14.6825  17.3191  23.8666

          k = 0.0000 0.7735-0.2578 (   428 PWs)   bands (ev):

     5.4668   5.7926  11.7388  14.2736  19.6347  20.7566

          k =-0.1289 0.9024-0.2578 (   422 PWs)   bands (ev):

     5.1621   8.6315   8.8655  15.8641  16.8081  19.8593

          k = 0.5157-0.5157 0.5157 (   420 PWs)   bands (ev):

     6.9903   7.6484   7.6484   7.6484  32.0858  32.0859

          k = 0.0000 0.0000 0.7735 (   426 PWs)   bands (ev):

     4.7072  10.8773  10.8773  12.9250  13.8942  19.3988

          k = 0.0000 0.9024-0.1289 (   428 PWs)   bands (ev):

     7.7098   7.9653  10.4453  12.8554  15.2716  15.8785

          k = 0.0000 0.0000-1.0313 (   418 PWs)   bands (ev):

    10.0129  10.0129  10.0129  11.6678  12.9213  12.9213

     the Fermi energy is    10.5704 ev

!    total energy              =     -46.68680201 Ry
     Harris-Foulkes estimate   =     -46.68680201 Ry
     estimated scf accuracy    <          1.6E-12 Ry

     total all-electron energy =       -46.686802 Ry

     The total energy is the sum of the following terms:

     one-electron contribution =       5.03095231 Ry
     hartree contribution      =       0.03030939 Ry
     xc contribution           =      -2.84677644 Ry
     ewald contribution        =     -10.00880122 Ry
     one-center paw contrib.   =     -38.89205362 Ry
     smearing contrib. (-TS)   =      -0.00043243 Ry

     convergence has been achieved in  10 iterations

     negative rho (up, down):  1.569E-03 0.000E+00

     Forces acting on atoms (cartesian axes, Ry/au):

     atom    1 type  1   force =     0.00000000    0.00000000    0.00000000

     Total force =     0.000000     Total SCF correction =     0.000000


     Computing stress (Cartesian axis) and pressure


     negative rho (up, down):  1.569E-03 0.000E+00
          total   stress  (Ry/bohr**3)                   (kbar)     P=   -0.25
  -0.00000171  -0.00000000   0.00000000         -0.25     -0.00      0.00
  -0.00000000  -0.00000171  -0.00000000         -0.00     -0.25     -0.00
   0.00000000  -0.00000000  -0.00000171          0.00     -0.00     -0.25


     Writing output data file relax.save/
 
     init_run     :      0.33s CPU      0.33s WALL (       2 calls)
     electrons    :      2.11s CPU      2.33s WALL (       5 calls)
     update_pot   :      0.29s CPU      0.29s WALL (       3 calls)
     forces       :      0.20s CPU      0.20s WALL (       5 calls)
     stress       :      0.43s CPU      0.44s WALL (       5 calls)

     Called by init_run:
     wfcinit      :      0.03s CPU      0.03s WALL (       2 calls)
     potinit      :      0.07s CPU      0.07s WALL (       2 calls)
     hinit0       :      0.23s CPU      0.23s WALL (       2 calls)

     Called by electrons:
     c_bands      :      1.17s CPU      1.35s WALL (      31 calls)
     sum_band     :      0.20s CPU      0.22s WALL (      31 calls)
     v_of_rho     :      0.04s CPU      0.04s WALL (      34 calls)
     newd         :      0.01s CPU      0.02s WALL (      34 calls)
     PAW_pot      :      0.85s CPU      0.86s WALL (      37 calls)
     mix_rho      :      0.00s CPU      0.01s WALL (      31 calls)

     Called by c_bands:
     init_us_2    :      0.03s CPU      0.03s WALL (    2233 calls)
     cegterg      :      1.12s CPU      1.29s WALL (     899 calls)

     Called by sum_band:
     sum_band:bec :      0.00s CPU      0.00s WALL (     986 calls)
     addusdens    :      0.01s CPU      0.01s WALL (      31 calls)

     Called by *egterg:
     h_psi        :      0.81s CPU      0.93s WALL (    3454 calls)
     s_psi        :      0.01s CPU      0.02s WALL (    3454 calls)
     g_psi        :      0.01s CPU      0.01s WALL (    2497 calls)
     cdiaghg      :      0.19s CPU      0.22s WALL (    3251 calls)

     Called by h_psi:
     h_psi:pot    :      0.80s CPU      0.92s WALL (    3454 calls)
     h_psi:calbec :      0.03s CPU      0.03s WALL (    3454 calls)
     vloc_psi     :      0.74s CPU      0.85s WALL (    3454 calls)
     add_vuspsi   :      0.01s CPU      0.02s WALL (    3454 calls)

     General routines
     calbec       :      0.04s CPU      0.04s WALL (    5165 calls)
     fft          :      0.03s CPU      0.03s WALL (     567 calls)
     ffts         :      0.00s CPU      0.00s WALL (      65 calls)
     fftw         :      0.77s CPU      0.88s WALL (   36028 calls)
     interpolate  :      0.00s CPU      0.00s WALL (      34 calls)
 
     Parallel routines
     fft_scatt_xy :      0.13s CPU      0.15s WALL (   36660 calls)
     fft_scatt_yz :      0.27s CPU      0.31s WALL (   36660 calls)
 
     PWSCF        :     3.96s CPU         4.27s WALL

 
   This run was terminated on:   9:27: 1  16Jul2019            

=------------------------------------------------------------------------------=
   JOB DONE.
=------------------------------------------------------------------------------=
