===== VARIABLES =====
EXE_PATH = /scr/szymansk/2019-3/qe-bin/bin/pw.x
tpp = 4
Parallel keywords = -nimage 1
MPIRUN_EXE = orterun
PATH = /scr/szymansk/2019-3/mmshare-v4.7/lib/Linux-x86_64/openmpi/bin:/scr/szymansk/2019-3/internal/bin:/scr/szymansk/2019-3/mmshare-v4.7/bin/Linux-x86_64:/scr/szymansk/gaopaw_test/pytesting_stuff/Si_Elem/workdir_pp.1:.:/scr/szymansk/gaopaw_test/pytesting_stuff/Si_Elem:/home/szymansk/bin:/scr/szymansk/dakota/bin:/scr/szymansk/atompaw-4.1.0.5/src/:/usr/lib64/qt-3.3/bin:/usr/local/bin:/usr/local/sbin:/usr/bin:/usr/sbin:/bin:/sbin
LD_LIBRARY_PATH = /scr/szymansk/2019-3/mmshare-v4.7/lib/Linux-x86_64/openmpi/lib:/scr/szymansk/2019-3/internal/lib/ssl:/scr/szymansk/2019-3/internal/lib:/scr/szymansk/2019-3/mmshare-v4.7/lib/Linux-x86_64:/scr/szymansk/2019-3/internal/lib/python3.6/site-packages:/scr/szymansk/dakota/bin:/software/lib/Linux-x86_64/ifort_2017.1.132/mkl/lib/intel64
===== END VARIABLES =====
Invoking: exe_cmd () 
{ 
    "$MPIRUN_EXE" -np $tpp "$EXE_PATH" -in $input_file "${P_KEYWORDS[@]}"
}

     Program PWSCF v.6.3MaX starts on 16Jul2019 at  9:26:48 

     This program is part of the open-source Quantum ESPRESSO suite
     for quantum simulation of materials; please cite
         "P. Giannozzi et al., J. Phys.:Condens. Matter 21 395502 (2009);
         "P. Giannozzi et al., J. Phys.:Condens. Matter 29 465901 (2017);
          URL http://www.quantum-espresso.org", 
     in publications or presentations arising from this work. More details at
     http://www.quantum-espresso.org/quote

     Parallel version (MPI), running on     4 processors

     MPI processes distributed on     1 nodes
     R & G space division:  proc/nbgrp/npool/nimage =       4
     Reading input from Si.FCC.relax.in

     Current dimensions of program PWSCF are:
     Max number of different atomic species (ntypx) = 10
     Max number of k-points (npk) =  40000
     Max angular momentum in pseudopotentials (lmaxx) =  3
               file Si.GGA-PBE-paw.UPF: wavefunction(s)  Xn Xn renormalized

     Subspace diagonalization in iterative solution of the eigenvalue problem:
     a serial algorithm will be used

 
     Parallelization info
     --------------------
     sticks:   dense  smooth     PW     G-vecs:    dense   smooth      PW
     Min          63      49     18                  659      457     102
     Max          64      50     19                  660      460     104
     Sum         253     199     73                 2637     1837     411
 


     bravais-lattice index     =            2
     lattice parameter (alat)  =       6.0000  a.u.
     unit-cell volume          =      54.0000 (a.u.)^3
     number of atoms/cell      =            1
     number of atomic types    =            1
     number of electrons       =         4.00
     number of Kohn-Sham states=            6
     kinetic-energy cutoff     =      40.0000  Ry
     charge density cutoff     =     200.0000  Ry
     convergence threshold     =      1.0E-08
     mixing beta               =       0.7000
     number of iterations used =            8  plain     mixing
     Exchange-correlation      = SLA PW PBX PBC ( 1  4  3  4 0 0)
     nstep                     =           50


     celldm(1)=   6.000000  celldm(2)=   0.000000  celldm(3)=   0.000000
     celldm(4)=   0.000000  celldm(5)=   0.000000  celldm(6)=   0.000000

     crystal axes: (cart. coord. in units of alat)
               a(1) = (  -0.500000   0.000000   0.500000 )  
               a(2) = (   0.000000   0.500000   0.500000 )  
               a(3) = (  -0.500000   0.500000   0.000000 )  

     reciprocal axes: (cart. coord. in units 2 pi/alat)
               b(1) = ( -1.000000 -1.000000  1.000000 )  
               b(2) = (  1.000000  1.000000  1.000000 )  
               b(3) = ( -1.000000  1.000000 -1.000000 )  


     PseudoPot. # 1 for Si read from file:
     ./Si.GGA-PBE-paw.UPF
     MD5 check sum: 55a399ac9c9f37f95204fc9e5818eb3e
     Pseudo is Projector augmented-wave + core cor, Zval =  4.0
     Generated using ATOMPAW code
     Shape of augmentation charge: BESSEL
     Using radial grid of 2342 points,  4 beta functions with: 
                l(1) =   0
                l(2) =   0
                l(3) =   1
                l(4) =   1
     Q(r) pseudized with 0 coefficients 


     atomic species   valence    mass     pseudopotential
        Si             4.00    28.08550     Si( 1.00)

     48 Sym. Ops., with inversion, found



   Cartesian axes

     site n.     atom                  positions (alat units)
         1           Si  tau(   1) = (   0.0000000   0.0000000   0.0000000  )

     number of k points=    29  Fermi-Dirac smearing, width (Ry)=  0.0020
                       cart. coord. in units 2pi/alat
        k(    1) = (   0.0000000   0.0000000   0.0000000), wk =   0.0039062
        k(    2) = (  -0.1250000   0.1250000  -0.1250000), wk =   0.0312500
        k(    3) = (  -0.2500000   0.2500000  -0.2500000), wk =   0.0312500
        k(    4) = (  -0.3750000   0.3750000  -0.3750000), wk =   0.0312500
        k(    5) = (   0.5000000  -0.5000000   0.5000000), wk =   0.0156250
        k(    6) = (   0.0000000   0.2500000   0.0000000), wk =   0.0234375
        k(    7) = (  -0.1250000   0.3750000  -0.1250000), wk =   0.0937500
        k(    8) = (  -0.2500000   0.5000000  -0.2500000), wk =   0.0937500
        k(    9) = (   0.6250000  -0.3750000   0.6250000), wk =   0.0937500
        k(   10) = (   0.5000000  -0.2500000   0.5000000), wk =   0.0937500
        k(   11) = (   0.3750000  -0.1250000   0.3750000), wk =   0.0937500
        k(   12) = (   0.2500000   0.0000000   0.2500000), wk =   0.0468750
        k(   13) = (   0.0000000   0.5000000   0.0000000), wk =   0.0234375
        k(   14) = (  -0.1250000   0.6250000  -0.1250000), wk =   0.0937500
        k(   15) = (   0.7500000  -0.2500000   0.7500000), wk =   0.0937500
        k(   16) = (   0.6250000  -0.1250000   0.6250000), wk =   0.0937500
        k(   17) = (   0.5000000   0.0000000   0.5000000), wk =   0.0468750
        k(   18) = (   0.0000000   0.7500000   0.0000000), wk =   0.0234375
        k(   19) = (   0.8750000  -0.1250000   0.8750000), wk =   0.0937500
        k(   20) = (   0.7500000   0.0000000   0.7500000), wk =   0.0468750
        k(   21) = (   0.0000000  -1.0000000   0.0000000), wk =   0.0117188
        k(   22) = (  -0.2500000   0.5000000   0.0000000), wk =   0.0937500
        k(   23) = (   0.6250000  -0.3750000   0.8750000), wk =   0.1875000
        k(   24) = (   0.5000000  -0.2500000   0.7500000), wk =   0.0937500
        k(   25) = (   0.7500000  -0.2500000   1.0000000), wk =   0.0937500
        k(   26) = (   0.6250000  -0.1250000   0.8750000), wk =   0.1875000
        k(   27) = (   0.5000000   0.0000000   0.7500000), wk =   0.0937500
        k(   28) = (  -0.2500000  -1.0000000   0.0000000), wk =   0.0468750
        k(   29) = (  -0.5000000  -1.0000000   0.0000000), wk =   0.0234375

     Dense  grid:     2637 G-vectors     FFT dimensions: (  20,  20,  20)

     Smooth grid:     1837 G-vectors     FFT dimensions: (  18,  18,  18)

     Estimated max dynamical RAM per process >       1.70 MB

     Estimated total dynamical RAM >       6.78 MB

     Initial potential from superposition of free atoms

     starting charge    3.99937, renormalised to    4.00000

     negative rho (up, down):  1.275E-05 0.000E+00
     Starting wfcs are    8 randomized atomic wfcs
     Checking if some PAW data can be deallocated... 

     total cpu time spent up to now is        0.7 secs

     Self-consistent Calculation

     iteration #  1     ecut=    40.00 Ry     beta= 0.70
     Davidson diagonalization with overlap
     ethr =  1.00E-02,  avg # of iterations =  4.0

     Threshold (ethr) on eigenvalues was too large:
     Diagonalizing with lowered threshold

     Davidson diagonalization with overlap
     ethr =  2.15E-04,  avg # of iterations =  1.8

     negative rho (up, down):  2.406E-04 0.000E+00

     total cpu time spent up to now is        0.8 secs

     total energy              =     -46.52505934 Ry
     Harris-Foulkes estimate   =     -46.52871127 Ry
     estimated scf accuracy    <       0.00862199 Ry

     iteration #  2     ecut=    40.00 Ry     beta= 0.70
     Davidson diagonalization with overlap
     ethr =  2.16E-04,  avg # of iterations =  1.0

     negative rho (up, down):  4.384E-04 0.000E+00

     total cpu time spent up to now is        0.8 secs

     total energy              =     -46.52485423 Ry
     Harris-Foulkes estimate   =     -46.52517022 Ry
     estimated scf accuracy    <       0.00062912 Ry

     iteration #  3     ecut=    40.00 Ry     beta= 0.70
     Davidson diagonalization with overlap
     ethr =  1.57E-05,  avg # of iterations =  2.8

     negative rho (up, down):  3.333E-04 0.000E+00

     total cpu time spent up to now is        0.9 secs

     total energy              =     -46.52498152 Ry
     Harris-Foulkes estimate   =     -46.52497725 Ry
     estimated scf accuracy    <       0.00000093 Ry

     iteration #  4     ecut=    40.00 Ry     beta= 0.70
     Davidson diagonalization with overlap
     ethr =  2.32E-08,  avg # of iterations =  3.6

     negative rho (up, down):  2.464E-04 0.000E+00

     total cpu time spent up to now is        0.9 secs

     total energy              =     -46.52498932 Ry
     Harris-Foulkes estimate   =     -46.52498788 Ry
     estimated scf accuracy    <       0.00000019 Ry

     iteration #  5     ecut=    40.00 Ry     beta= 0.70
     Davidson diagonalization with overlap
     ethr =  4.78E-09,  avg # of iterations =  3.2

     negative rho (up, down):  2.451E-04 0.000E+00

     total cpu time spent up to now is        1.0 secs

     End of self-consistent calculation

          k = 0.0000 0.0000 0.0000 (   259 PWs)   bands (ev):

     0.0101  36.1679  36.1679  36.1679  41.3829  41.3829

          k =-0.1250 0.1250-0.1250 (   232 PWs)   bands (ev):

     0.6797  30.0918  35.3748  35.3749  41.2271  43.2788

          k =-0.2500 0.2500-0.2500 (   232 PWs)   bands (ev):

     2.6663  22.6380  34.4355  34.4355  40.4197  40.8477

          k =-0.3750 0.3750-0.3750 (   232 PWs)   bands (ev):

     5.9006  16.0545  34.1634  34.1634  37.9978  37.9978

          k = 0.5000-0.5000 0.5000 (   228 PWs)   bands (ev):

     9.6416  11.1952  34.2969  34.2969  36.8052  36.8052

          k = 0.0000 0.2500 0.0000 (   230 PWs)   bands (ev):

     0.9021  32.1478  32.9409  32.9409  38.7945  41.1473

          k =-0.1250 0.3750-0.1250 (   234 PWs)   bands (ev):

     2.4473  25.4038  31.4216  33.1222  35.8954  41.1235

          k =-0.2500 0.5000-0.2500 (   236 PWs)   bands (ev):

     5.2633  18.6182  30.9176  31.1644  34.5613  43.1654

          k = 0.6250-0.3750 0.6250 (   237 PWs)   bands (ev):

     9.1820  12.8626  29.1032  31.4640  34.9858  40.8252

          k = 0.5000-0.2500 0.5000 (   230 PWs)   bands (ev):

     7.7873  14.6162  27.9570  33.1032  36.6676  39.4535

          k = 0.3750-0.1250 0.3750 (   227 PWs)   bands (ev):

     4.1886  20.7144  27.9625  35.8717  38.8932  39.4176

          k = 0.2500 0.0000 0.2500 (   233 PWs)   bands (ev):

     1.7875  26.9362  29.8734  37.9650  39.8317  42.6566

          k = 0.0000 0.5000 0.0000 (   234 PWs)   bands (ev):

     3.5393  27.7991  29.4742  29.4742  29.8414  37.4676

          k =-0.1250 0.6250-0.1250 (   230 PWs)   bands (ev):

     5.9046  22.0788  25.8705  28.6009  30.8800  38.6633

          k = 0.7500-0.2500 0.7500 (   231 PWs)   bands (ev):

     9.4396  16.1278  23.1415  28.7966  31.8068  43.6770

          k = 0.6250-0.1250 0.6250 (   232 PWs)   bands (ev):

    10.8194  14.3124  21.6115  30.0770  33.4274  45.2227

          k = 0.5000 0.0000 0.5000 (   222 PWs)   bands (ev):

     6.9618  18.8377  22.3296  32.4675  36.0731  43.3073

          k = 0.0000 0.7500 0.0000 (   226 PWs)   bands (ev):

     7.7987  21.2587  25.1017  27.3635  27.3635  35.2164

          k = 0.8750-0.1250 0.8750 (   228 PWs)   bands (ev):

    10.8265  17.7857  20.8006  27.1946  29.1053  37.2430

          k = 0.7500 0.0000 0.7500 (   224 PWs)   bands (ev):

    14.0517  14.6565  17.7676  28.0945  30.9085  43.0476

          k = 0.0000-1.0000 0.0000 (   222 PWs)   bands (ev):

    12.4768  15.1359  24.1956  26.6632  26.6632  34.4025

          k =-0.2500 0.5000 0.0000 (   231 PWs)   bands (ev):

     4.4049  22.8669  26.0451  31.4676  35.9928  41.0402

          k = 0.6250-0.3750 0.8750 (   231 PWs)   bands (ev):

     7.5895  17.4621  24.5284  28.5133  37.6339  41.1857

          k = 0.5000-0.2500 0.7500 (   232 PWs)   bands (ev):

    11.2584  12.7867  24.5312  27.2549  38.9720  39.0497

          k = 0.7500-0.2500 1.0000 (   226 PWs)   bands (ev):

     8.6289  20.4177  21.4294  25.2028  33.7466  39.1847

          k = 0.6250-0.1250 0.8750 (   230 PWs)   bands (ev):

    12.3785  15.7303  19.6048  24.2902  36.1780  43.5961

          k = 0.5000 0.0000 0.7500 (   233 PWs)   bands (ev):

    11.0639  16.4313  19.6207  25.6894  38.3502  42.7111

          k =-0.2500-1.0000 0.0000 (   226 PWs)   bands (ev):

    13.2625  15.7988  19.6013  23.9566  32.9720  38.4936

          k =-0.5000-1.0000 0.0000 (   224 PWs)   bands (ev):

    15.6324  15.6324  16.7842  21.6935  42.0019  42.0019

     the Fermi energy is    20.8268 ev

!    total energy              =     -46.52498951 Ry
     Harris-Foulkes estimate   =     -46.52498951 Ry
     estimated scf accuracy    <          4.9E-09 Ry

     total all-electron energy =       -46.524990 Ry

     The total energy is the sum of the following terms:

     one-electron contribution =       7.97226696 Ry
     hartree contribution      =       0.03153419 Ry
     xc contribution           =      -3.34925963 Ry
     ewald contribution        =     -12.22629892 Ry
     one-center paw contrib.   =     -38.95310644 Ry
     smearing contrib. (-TS)   =      -0.00012567 Ry

     convergence has been achieved in   5 iterations

     negative rho (up, down):  2.451E-04 0.000E+00

     Forces acting on atoms (cartesian axes, Ry/au):

     atom    1 type  1   force =     0.00000000    0.00000000    0.00000000

     Total force =     0.000000     Total SCF correction =     0.000000


     Computing stress (Cartesian axis) and pressure


     negative rho (up, down):  2.451E-04 0.000E+00
          total   stress  (Ry/bohr**3)                   (kbar)     P= 1851.70
   0.01258761  -0.00000000  -0.00000000       1851.70     -0.00     -0.00
  -0.00000000   0.01258761   0.00000000         -0.00   1851.70      0.00
  -0.00000000   0.00000000   0.01258761         -0.00      0.00   1851.70


     BFGS Geometry Optimization

     number of scf cycles    =   1
     number of bfgs steps    =   0

     enthalpy new            =     -46.5249895109 Ry

     new trust radius        =       0.4624982405 bohr
     new conv_thr            =       0.0000000100 Ry

     new unit-cell volume =    122.70550 a.u.^3 (    18.18308 Ang^3 )
     density =      2.56486 g/cm^3

CELL_PARAMETERS (alat=  6.00000000)
  -0.657345098   0.000000000   0.657345098
  -0.000000000   0.657345098   0.657345098
  -0.657345098   0.657345098   0.000000000

ATOMIC_POSITIONS (alat)
Si       0.000000000   0.000000000   0.000000000



     Writing output data file relax.save/
     NEW-OLD atomic charge density approx. for the potential

     Check: negative/imaginary core charge=   -0.000002    0.000000
     Check: negative starting charge=   -0.001977

     negative rho (up, down):  2.430E-03 0.000E+00
     extrapolated charge    6.23933, renormalised to    4.00000

     total cpu time spent up to now is        1.2 secs

     Self-consistent Calculation

     iteration #  1     ecut=    40.00 Ry     beta= 0.70
     Davidson diagonalization with overlap
     ethr =  1.00E-06,  avg # of iterations =  6.1

     negative rho (up, down):  3.062E-03 0.000E+00

     total cpu time spent up to now is        1.3 secs

     total energy              =     -46.67284745 Ry
     Harris-Foulkes estimate   =     -48.76776555 Ry
     estimated scf accuracy    <       0.01555635 Ry

     iteration #  2     ecut=    40.00 Ry     beta= 0.70
     Davidson diagonalization with overlap
     ethr =  3.89E-04,  avg # of iterations =  1.0

     negative rho (up, down):  3.324E-03 0.000E+00

     total cpu time spent up to now is        1.3 secs

     total energy              =     -46.67208950 Ry
     Harris-Foulkes estimate   =     -46.67353952 Ry
     estimated scf accuracy    <       0.00152079 Ry

     iteration #  3     ecut=    40.00 Ry     beta= 0.70
     Davidson diagonalization with overlap
     ethr =  3.80E-05,  avg # of iterations =  3.0

     negative rho (up, down):  2.663E-03 0.000E+00

     total cpu time spent up to now is        1.4 secs

     total energy              =     -46.67283980 Ry
     Harris-Foulkes estimate   =     -46.67292485 Ry
     estimated scf accuracy    <       0.00008950 Ry

     iteration #  4     ecut=    40.00 Ry     beta= 0.70
     Davidson diagonalization with overlap
     ethr =  2.24E-06,  avg # of iterations =  2.1

     negative rho (up, down):  2.213E-03 0.000E+00

     total cpu time spent up to now is        1.4 secs

     total energy              =     -46.67286202 Ry
     Harris-Foulkes estimate   =     -46.67285422 Ry
     estimated scf accuracy    <       0.00000154 Ry

     iteration #  5     ecut=    40.00 Ry     beta= 0.70
     Davidson diagonalization with overlap
     ethr =  3.85E-08,  avg # of iterations =  1.8

     negative rho (up, down):  2.293E-03 0.000E+00

     total cpu time spent up to now is        1.5 secs

     total energy              =     -46.67286269 Ry
     Harris-Foulkes estimate   =     -46.67286227 Ry
     estimated scf accuracy    <       0.00000008 Ry

     iteration #  6     ecut=    40.00 Ry     beta= 0.70
     Davidson diagonalization with overlap
     ethr =  1.90E-09,  avg # of iterations =  2.3

     negative rho (up, down):  2.292E-03 0.000E+00

     total cpu time spent up to now is        1.5 secs

     End of self-consistent calculation

          k = 0.0000 0.0000 0.0000 (   259 PWs)   bands (ev):

    -4.6307  16.5096  16.5096  19.1382  19.1382  19.1382

          k =-0.0951 0.0951-0.0951 (   232 PWs)   bands (ev):

    -4.2437  13.3638  15.8352  15.8352  19.4677  20.1685

          k =-0.1902 0.1902-0.1902 (   232 PWs)   bands (ev):

    -3.0901   8.9716  15.0379  15.0379  19.1736  20.0979

          k =-0.2852 0.2852-0.2852 (   232 PWs)   bands (ev):

    -1.2038   5.0149  14.6410  14.6410  18.7701  18.7701

          k = 0.3803-0.3803 0.3803 (   228 PWs)   bands (ev):

     0.8156   2.2935  14.5483  14.5483  18.2233  18.2233

          k = 0.0000 0.1902-0.0000 (   230 PWs)   bands (ev):

    -4.1147  14.4609  14.4609  15.2328  17.1266  21.0155

          k =-0.0951 0.2852-0.0951 (   234 PWs)   bands (ev):

    -3.2163  10.6793  13.4741  14.4636  17.3604  19.5083

          k =-0.1902 0.3803-0.1902 (   236 PWs)   bands (ev):

    -1.5693   6.5736  13.0958  13.2830  16.6637  20.9125

          k = 0.4754-0.2852 0.4754 (   237 PWs)   bands (ev):

     0.6794   3.1684  12.2155  13.3414  16.6472  20.1092

          k = 0.3803-0.1902 0.3803 (   230 PWs)   bands (ev):

    -0.1008   4.1829  11.5763  14.1499  17.5506  19.5412

          k = 0.2852-0.0951 0.2852 (   227 PWs)   bands (ev):

    -2.1995   7.8950  11.5369  15.3323  19.1800  19.8285

          k = 0.1902-0.0000 0.1902 (   233 PWs)   bands (ev):

    -3.6010  12.0925  12.2025  16.3499  20.1537  20.2359

          k = 0.0000 0.3803-0.0000 (   234 PWs)   bands (ev):

    -2.5754  12.1004  12.2764  12.2764  14.7225  16.4497

          k =-0.0951 0.4754-0.0951 (   230 PWs)   bands (ev):

    -1.1802   8.6674  10.5864  11.7033  14.7102  17.2529

          k = 0.5705-0.1902 0.5705 (   231 PWs)   bands (ev):

     0.9082   5.1035   8.9074  11.7941  14.7501  20.6717

          k = 0.4754-0.0951 0.4754 (   232 PWs)   bands (ev):

     1.6656   4.1427   7.8662  12.5367  15.5604  22.7260

          k = 0.3803-0.0000 0.3803 (   222 PWs)   bands (ev):

    -0.5661   7.4837   7.5611  13.8551  17.1089  22.1190

          k = 0.0000 0.5705-0.0000 (   226 PWs)   bands (ev):

    -0.0409   7.6853  10.9154  10.9154  13.2028  14.2663

          k = 0.6656-0.0951 0.6656 (   228 PWs)   bands (ev):

     1.8148   5.6419   8.1306  10.7955  13.5460  16.2640

          k = 0.5705-0.0000 0.5705 (   224 PWs)   bands (ev):

     3.5525   4.5478   5.5268  11.3484  14.1903  20.3385

          k = 0.0000-0.7606 0.0000 (   222 PWs)   bands (ev):

     3.3036   3.5619  10.4569  10.4569  12.6889  13.6543

          k =-0.1902 0.3803-0.0000 (   231 PWs)   bands (ev):

    -2.0693   9.7861   9.8706  13.4748  18.0393  18.4829

          k = 0.4754-0.2852 0.6656 (   231 PWs)   bands (ev):

    -0.1940   5.9614   9.6099  11.8436  17.9471  19.9360

          k = 0.3803-0.1902 0.5705 (   232 PWs)   bands (ev):

     1.8186   3.2630   9.7414  11.0486  17.9933  19.4356

          k = 0.5705-0.1902 0.7606 (   226 PWs)   bands (ev):

     0.4466   7.6066   8.4290   9.4890  16.6330  17.0005

          k = 0.4754-0.0951 0.6656 (   230 PWs)   bands (ev):

     2.6624   4.9698   6.9158   9.1548  17.1235  20.5058

          k = 0.3803-0.0000 0.5705 (   233 PWs)   bands (ev):

     1.8581   6.0196   6.1305  10.1323  18.0394  21.8092

          k =-0.1902-0.7606 0.0000 (   226 PWs)   bands (ev):

     3.6759   4.0551   7.9446   8.4875  16.1536  16.5275

          k =-0.3803-0.7606 0.0000 (   224 PWs)   bands (ev):

     4.2372   5.5292   5.5292   7.0666  19.9864  21.3749

     the Fermi energy is     7.8894 ev

!    total energy              =     -46.67286271 Ry
     Harris-Foulkes estimate   =     -46.67286271 Ry
     estimated scf accuracy    <          4.6E-10 Ry

     total all-electron energy =       -46.672863 Ry

     The total energy is the sum of the following terms:

     one-electron contribution =       4.15506760 Ry
     hartree contribution      =       0.07299443 Ry
     xc contribution           =      -2.71381360 Ry
     ewald contribution        =      -9.29989635 Ry
     one-center paw contrib.   =     -38.88693721 Ry
     smearing contrib. (-TS)   =      -0.00027758 Ry

     convergence has been achieved in   6 iterations

     negative rho (up, down):  2.292E-03 0.000E+00

     Forces acting on atoms (cartesian axes, Ry/au):

     atom    1 type  1   force =     0.00000000    0.00000000    0.00000000

     Total force =     0.000000     Total SCF correction =     0.000000


     Computing stress (Cartesian axis) and pressure


     negative rho (up, down):  2.292E-03 0.000E+00
          total   stress  (Ry/bohr**3)                   (kbar)     P=  -94.83
  -0.00064463   0.00000000   0.00000000        -94.83      0.00      0.00
   0.00000000  -0.00064463   0.00000000          0.00    -94.83      0.00
   0.00000000   0.00000000  -0.00064463          0.00      0.00    -94.83


     number of scf cycles    =   2
     number of bfgs steps    =   1

     enthalpy old            =     -46.5249895109 Ry
     enthalpy new            =     -46.6728627121 Ry

     CASE: enthalpy_new < enthalpy_old

     new trust radius        =       0.0431224337 bohr
     new conv_thr            =            1.0E-10 Ry

     new unit-cell volume =    115.67889 a.u.^3 (    17.14184 Ang^3 )
     density =      2.72066 g/cm^3

CELL_PARAMETERS (alat=  6.00000000)
  -0.644550264   0.000000000   0.644550264
  -0.000000000   0.644550264   0.644550264
  -0.644550264   0.644550264   0.000000000

ATOMIC_POSITIONS (alat)
Si       0.000000000   0.000000000   0.000000000



     Writing output data file relax.save/
     Check: negative starting charge=   -0.001977
     NEW-OLD atomic charge density approx. for the potential

     Check: negative/imaginary core charge=   -0.000002    0.000000
     Check: negative starting charge=   -0.001852

     negative rho (up, down):  2.046E-03 0.000E+00
     extrapolated charge    3.75707, renormalised to    4.00000

     total cpu time spent up to now is        1.7 secs

     Self-consistent Calculation

     iteration #  1     ecut=    40.00 Ry     beta= 0.70
     Davidson diagonalization with overlap
     ethr =  1.00E-06,  avg # of iterations =  3.9

     negative rho (up, down):  2.086E-03 0.000E+00

     total cpu time spent up to now is        1.7 secs

     total energy              =     -46.67678885 Ry
     Harris-Foulkes estimate   =     -46.46983211 Ry
     estimated scf accuracy    <       0.00008704 Ry

     iteration #  2     ecut=    40.00 Ry     beta= 0.70
     Davidson diagonalization with overlap
     ethr =  2.18E-06,  avg # of iterations =  2.0

     negative rho (up, down):  2.061E-03 0.000E+00

     total cpu time spent up to now is        1.8 secs

     total energy              =     -46.67684510 Ry
     Harris-Foulkes estimate   =     -46.67686172 Ry
     estimated scf accuracy    <       0.00000537 Ry

     iteration #  3     ecut=    40.00 Ry     beta= 0.70
     Davidson diagonalization with overlap
     ethr =  1.34E-07,  avg # of iterations =  3.1

     negative rho (up, down):  2.093E-03 0.000E+00

     total cpu time spent up to now is        1.9 secs

     total energy              =     -46.67684675 Ry
     Harris-Foulkes estimate   =     -46.67684803 Ry
     estimated scf accuracy    <       0.00000037 Ry

     iteration #  4     ecut=    40.00 Ry     beta= 0.70
     Davidson diagonalization with overlap
     ethr =  9.26E-09,  avg # of iterations =  3.0

     negative rho (up, down):  2.123E-03 0.000E+00

     total cpu time spent up to now is        1.9 secs

     total energy              =     -46.67684698 Ry
     Harris-Foulkes estimate   =     -46.67684699 Ry
     estimated scf accuracy    <       0.00000003 Ry

     iteration #  5     ecut=    40.00 Ry     beta= 0.70
     Davidson diagonalization with overlap
     ethr =  6.44E-10,  avg # of iterations =  3.0

     negative rho (up, down):  2.129E-03 0.000E+00

     total cpu time spent up to now is        2.0 secs

     total energy              =     -46.67684701 Ry
     Harris-Foulkes estimate   =     -46.67684701 Ry
     estimated scf accuracy    <          1.2E-09 Ry

     iteration #  6     ecut=    40.00 Ry     beta= 0.70
     Davidson diagonalization with overlap
     ethr =  3.02E-11,  avg # of iterations =  3.0

     negative rho (up, down):  2.130E-03 0.000E+00

     total cpu time spent up to now is        2.0 secs

     total energy              =     -46.67684701 Ry
     Harris-Foulkes estimate   =     -46.67684701 Ry
     estimated scf accuracy    <          1.7E-10 Ry

     iteration #  7     ecut=    40.00 Ry     beta= 0.70
     Davidson diagonalization with overlap
     ethr =  4.35E-12,  avg # of iterations =  3.0

     negative rho (up, down):  2.130E-03 0.000E+00

     total cpu time spent up to now is        2.1 secs

     End of self-consistent calculation

          k = 0.0000 0.0000 0.0000 (   259 PWs)   bands (ev):

    -4.4091  17.8020  17.8020  17.8020  20.0518  20.0518

          k =-0.0970 0.0970-0.0970 (   232 PWs)   bands (ev):

    -4.0051  14.3423  17.0108  17.0108  20.5676  21.2245

          k =-0.1939 0.1939-0.1939 (   232 PWs)   bands (ev):

    -2.8000   9.7291  16.1599  16.1599  20.3244  21.1203

          k =-0.2909 0.2909-0.2909 (   232 PWs)   bands (ev):

    -0.8226   5.5904  15.7688  15.7688  19.6831  19.6831

          k = 0.3879-0.3879 0.3879 (   228 PWs)   bands (ev):

     1.3850   2.6515  15.6920  15.6920  19.0880  19.0880

          k =-0.0000 0.1939-0.0000 (   230 PWs)   bands (ev):

    -3.8705  15.5043  15.5043  16.5120  17.9376  22.0116

          k =-0.0970 0.2909-0.0970 (   234 PWs)   bands (ev):

    -2.9322  11.5236  14.4614  15.6133  18.2533  20.5131

          k =-0.1939 0.3879-0.1939 (   236 PWs)   bands (ev):

    -1.2088   7.2247  14.0717  14.3512  17.4823  22.1662

          k = 0.4848-0.2909 0.4848 (   237 PWs)   bands (ev):

     1.1846   3.6243  13.1904  14.3445  17.5046  21.1429

          k = 0.3879-0.1939 0.3879 (   230 PWs)   bands (ev):

     0.3405   4.7122  12.4912  15.2202  18.4776  20.5214

          k = 0.2909-0.0970 0.2909 (   227 PWs)   bands (ev):

    -1.8689   8.6044  12.4323  16.5105  20.1979  20.7829

          k = 0.1939-0.0000 0.1939 (   233 PWs)   bands (ev):

    -3.3340  13.0348  13.0854  17.6442  21.1095  21.4217

          k =-0.0000 0.3879-0.0000 (   234 PWs)   bands (ev):

    -2.2633  13.1975  13.1975  13.2244  15.4283  17.3039

          k =-0.0970 0.4848-0.0970 (   230 PWs)   bands (ev):

    -0.8048   9.4640  11.4459  12.5990  15.4795  18.2551

          k = 0.5818-0.1939 0.5818 (   231 PWs)   bands (ev):

     1.3947   5.6902   9.6835  12.6980  15.5611  21.8419

          k = 0.4848-0.0970 0.4848 (   232 PWs)   bands (ev):

     2.2224   4.6398   8.5917  13.4832  16.4224  23.9010

          k = 0.3879-0.0000 0.3879 (   222 PWs)   bands (ev):

    -0.1576   8.0836   8.3604  14.8872  18.0400  23.2973

          k = 0.0000 0.5818-0.0000 (   226 PWs)   bands (ev):

     0.3850   8.4948  11.7737  11.7737  13.8441  15.1709

          k = 0.6788-0.0970 0.6788 (   228 PWs)   bands (ev):

     2.3333   6.3517   8.7718  11.6496  14.3082  17.2484

          k = 0.5818-0.0000 0.5818 (   224 PWs)   bands (ev):

     4.3468   5.0243   6.0295  12.2301  14.9980  21.4882

          k = 0.0000-0.7757 0.0000 (   222 PWs)   bands (ev):

     3.9988   4.0375  11.2953  11.2953  13.3088  14.5714

          k =-0.1939 0.3879-0.0000 (   231 PWs)   bands (ev):

    -1.7337  10.5839  10.6988  14.4699  18.9949  19.5302

          k = 0.4848-0.2909 0.6788 (   231 PWs)   bands (ev):

     0.2332   6.5848  10.4399  12.6938  18.9716  21.0317

          k = 0.3879-0.1939 0.5818 (   232 PWs)   bands (ev):

     2.4395   3.6623  10.6195  11.8126  19.0517  20.4647

          k = 0.5818-0.1939 0.7757 (   226 PWs)   bands (ev):

     0.8994   8.4868   9.0776  10.1634  17.5258  18.0655

          k = 0.4848-0.0970 0.6788 (   230 PWs)   bands (ev):

     3.2693   5.5435   7.5831   9.8494  18.1217  21.6669

          k = 0.3879-0.0000 0.5818 (   233 PWs)   bands (ev):

     2.4048   6.5573   6.8547  10.8890  19.0967  22.9374

          k =-0.1939-0.7757 0.0000 (   226 PWs)   bands (ev):

     4.4596   4.5118   8.5723   9.1844  17.0258  17.5892

          k =-0.3879-0.7757 0.0000 (   224 PWs)   bands (ev):

     5.1465   6.0466   6.0466   7.5964  21.2319  22.4802

     the Fermi energy is     8.5923 ev

!    total energy              =     -46.67684701 Ry
     Harris-Foulkes estimate   =     -46.67684701 Ry
     estimated scf accuracy    <          3.2E-13 Ry

     total all-electron energy =       -46.676847 Ry

     The total energy is the sum of the following terms:

     one-electron contribution =       4.38341939 Ry
     hartree contribution      =       0.06034575 Ry
     xc contribution           =      -2.74739897 Ry
     ewald contribution        =      -9.48445429 Ry
     one-center paw contrib.   =     -38.88841787 Ry
     smearing contrib. (-TS)   =      -0.00034102 Ry

     convergence has been achieved in   7 iterations

     negative rho (up, down):  2.130E-03 0.000E+00

     Forces acting on atoms (cartesian axes, Ry/au):

     atom    1 type  1   force =     0.00000000    0.00000000    0.00000000

     Total force =     0.000000     Total SCF correction =     0.000000


     Computing stress (Cartesian axis) and pressure


     negative rho (up, down):  2.130E-03 0.000E+00
          total   stress  (Ry/bohr**3)                   (kbar)     P=  -71.66
  -0.00048714  -0.00000000  -0.00000000        -71.66     -0.00     -0.00
  -0.00000000  -0.00048714   0.00000000         -0.00    -71.66      0.00
  -0.00000000   0.00000000  -0.00048714         -0.00      0.00    -71.66


     number of scf cycles    =   3
     number of bfgs steps    =   2

     enthalpy old            =     -46.6728627121 Ry
     enthalpy new            =     -46.6768470075 Ry

     CASE: enthalpy_new < enthalpy_old

     new trust radius        =       0.0640510425 bohr
     new conv_thr            =            1.0E-10 Ry

     new unit-cell volume =    105.65010 a.u.^3 (    15.65573 Ang^3 )
     density =      2.97891 g/cm^3

CELL_PARAMETERS (alat=  6.00000000)
  -0.625358011   0.000000000   0.625358011
  -0.000000000   0.625358011   0.625358011
  -0.625358011   0.625358011   0.000000000

ATOMIC_POSITIONS (alat)
Si       0.000000000   0.000000000   0.000000000



     Writing output data file relax.save/
     Check: negative starting charge=   -0.001852
     NEW-OLD atomic charge density approx. for the potential

     Check: negative/imaginary core charge=   -0.000001    0.000000
     Check: negative starting charge=   -0.001638

     negative rho (up, down):  1.741E-03 0.000E+00
     extrapolated charge    3.62036, renormalised to    4.00000

     total cpu time spent up to now is        2.3 secs

     Self-consistent Calculation

     iteration #  1     ecut=    40.00 Ry     beta= 0.70
     Davidson diagonalization with overlap
     ethr =  1.00E-06,  avg # of iterations =  4.2

     negative rho (up, down):  1.739E-03 0.000E+00

     total cpu time spent up to now is        2.3 secs

     total energy              =     -46.68113138 Ry
     Harris-Foulkes estimate   =     -46.34921246 Ry
     estimated scf accuracy    <       0.00006594 Ry

     iteration #  2     ecut=    40.00 Ry     beta= 0.70
     Davidson diagonalization with overlap
     ethr =  1.65E-06,  avg # of iterations =  2.7

     negative rho (up, down):  1.727E-03 0.000E+00

     total cpu time spent up to now is        2.4 secs

     total energy              =     -46.68120401 Ry
     Harris-Foulkes estimate   =     -46.68123753 Ry
     estimated scf accuracy    <       0.00001385 Ry

     iteration #  3     ecut=    40.00 Ry     beta= 0.70
     Davidson diagonalization with overlap
     ethr =  3.46E-07,  avg # of iterations =  2.3

     negative rho (up, down):  1.815E-03 0.000E+00

     total cpu time spent up to now is        2.5 secs

     total energy              =     -46.68120231 Ry
     Harris-Foulkes estimate   =     -46.68120868 Ry
     estimated scf accuracy    <       0.00000200 Ry

     iteration #  4     ecut=    40.00 Ry     beta= 0.70
     Davidson diagonalization with overlap
     ethr =  5.00E-08,  avg # of iterations =  3.0

     negative rho (up, down):  1.827E-03 0.000E+00

     total cpu time spent up to now is        2.5 secs

     total energy              =     -46.68120440 Ry
     Harris-Foulkes estimate   =     -46.68120542 Ry
     estimated scf accuracy    <       0.00000027 Ry

     iteration #  5     ecut=    40.00 Ry     beta= 0.70
     Davidson diagonalization with overlap
     ethr =  6.76E-09,  avg # of iterations =  3.0

     negative rho (up, down):  1.841E-03 0.000E+00

     total cpu time spent up to now is        2.6 secs

     total energy              =     -46.68120456 Ry
     Harris-Foulkes estimate   =     -46.68120456 Ry
     estimated scf accuracy    <          9.6E-09 Ry

     iteration #  6     ecut=    40.00 Ry     beta= 0.70
     Davidson diagonalization with overlap
     ethr =  2.41E-10,  avg # of iterations =  3.1

     negative rho (up, down):  1.840E-03 0.000E+00

     total cpu time spent up to now is        2.7 secs

     total energy              =     -46.68120457 Ry
     Harris-Foulkes estimate   =     -46.68120457 Ry
     estimated scf accuracy    <          6.8E-10 Ry

     iteration #  7     ecut=    40.00 Ry     beta= 0.70
     Davidson diagonalization with overlap
     ethr =  1.70E-11,  avg # of iterations =  2.7

     negative rho (up, down):  1.840E-03 0.000E+00

     total cpu time spent up to now is        2.7 secs

     End of self-consistent calculation

          k = 0.0000 0.0000 0.0000 (   259 PWs)   bands (ev):

    -4.0523  19.9039  19.9039  19.9039  21.5302  21.5302

          k =-0.0999 0.0999-0.0999 (   232 PWs)   bands (ev):

    -3.6215  15.8966  18.8844  18.8844  22.3795  22.9766

          k =-0.1999 0.1999-0.1999 (   232 PWs)   bands (ev):

    -2.3355  10.9437  17.9578  17.9578  22.1989  22.7986

          k =-0.2998 0.2998-0.2998 (   232 PWs)   bands (ev):

    -0.2182   6.5250  17.5893  17.5893  21.1737  21.1737

          k = 0.3998-0.3998 0.3998 (   228 PWs)   bands (ev):

     2.2925   3.2376  17.5510  17.5510  20.4896  20.4896

          k =-0.0000 0.1999-0.0000 (   230 PWs)   bands (ev):

    -3.4780  17.1741  17.1741  18.5989  19.2495  23.6234

          k =-0.0999 0.2998-0.0999 (   234 PWs)   bands (ev):

    -2.4772  12.8677  16.0482  17.4729  19.7079  22.1625

          k =-0.1999 0.3998-0.1999 (   236 PWs)   bands (ev):

    -0.6355   8.2736  15.6425  16.0861  18.8124  24.2118

          k = 0.4997-0.2998 0.4997 (   237 PWs)   bands (ev):

     1.9720   4.3822  14.7626  15.9584  18.9137  22.8350

          k = 0.3998-0.1999 0.3998 (   230 PWs)   bands (ev):

     1.0347   5.5774  13.9662  16.9417  20.0005  22.1266

          k = 0.2998-0.0999 0.2998 (   227 PWs)   bands (ev):

    -1.3414   9.7411  13.8797  18.4110  21.8641  22.3372

          k = 0.1999-0.0000 0.1999 (   233 PWs)   bands (ev):

    -2.9056  14.3628  14.6808  19.7520  22.6563  23.3627

          k =-0.0000 0.3998-0.0000 (   234 PWs)   bands (ev):

    -1.7644  14.6840  14.6840  15.0339  16.5701  18.7238

          k =-0.0999 0.4997-0.0999 (   230 PWs)   bands (ev):

    -0.2079  10.7191  12.8500  14.0470  16.7447  19.9102

          k = 0.5997-0.1999 0.5997 (   231 PWs)   bands (ev):

     2.1565   6.6412  10.9455  14.1590  16.8990  23.7492

          k = 0.4997-0.0999 0.4997 (   232 PWs)   bands (ev):

     3.0850   5.4606   9.7756  15.0099  17.8422  25.8146

          k = 0.3998-0.0000 0.3998 (   222 PWs)   bands (ev):

     0.4891   9.0525   9.6572  16.5460  19.5699  25.2349

          k =-0.0000 0.5997-0.0000 (   226 PWs)   bands (ev):

     1.0589   9.7856  13.1646  13.1646  14.8819  16.6958

          k = 0.6996-0.0999 0.6996 (   228 PWs)   bands (ev):

     3.1399   7.5010   9.8172  13.0341  15.5600  18.8768

          k = 0.5997-0.0000 0.5997 (   224 PWs)   bands (ev):

     5.5986   5.8000   6.8587  13.6571  16.3291  23.3639

          k = 0.0000-0.7995 0.0000 (   222 PWs)   bands (ev):

     4.7123   5.1904  12.6558  12.6558  14.3119  16.1120

          k =-0.1999 0.3998-0.0000 (   231 PWs)   bands (ev):

    -1.1982  11.7289  12.1678  16.0679  20.5439  21.2682

          k = 0.4997-0.2998 0.6996 (   231 PWs)   bands (ev):

     0.9081   7.5881  11.7880  14.0669  20.6459  22.8151

          k = 0.3998-0.1999 0.5997 (   232 PWs)   bands (ev):

     3.4226   4.3135  12.0591  13.0322  20.7883  22.1334

          k = 0.5997-0.1999 0.7995 (   226 PWs)   bands (ev):

     1.6132   9.9261  10.1215  11.2490  18.9775  19.8232

          k = 0.4997-0.0999 0.6996 (   230 PWs)   bands (ev):

     4.1958   6.4825   8.6903  10.9868  19.7463  23.5639

          k = 0.3998-0.0000 0.5997 (   233 PWs)   bands (ev):

     3.2528   7.4287   8.0468  12.1226  20.8194  24.7596

          k =-0.1999-0.7995 0.0000 (   226 PWs)   bands (ev):

     5.2563   5.6888   9.5833  10.3424  18.4451  19.3389

          k =-0.3998-0.7995 0.0000 (   224 PWs)   bands (ev):

     6.6178   6.8863   6.8863   8.4502  23.2679  24.2682

     the Fermi energy is     9.7928 ev

!    total energy              =     -46.68120457 Ry
     Harris-Foulkes estimate   =     -46.68120457 Ry
     estimated scf accuracy    <          1.5E-12 Ry

     total all-electron energy =       -46.681205 Ry

     The total energy is the sum of the following terms:

     one-electron contribution =       4.74021216 Ry
     hartree contribution      =       0.04204694 Ry
     xc contribution           =      -2.80018745 Ry
     ewald contribution        =      -9.77548395 Ry
     one-center paw contrib.   =     -38.88744131 Ry
     smearing contrib. (-TS)   =      -0.00035097 Ry

     convergence has been achieved in   7 iterations

     negative rho (up, down):  1.840E-03 0.000E+00

     Forces acting on atoms (cartesian axes, Ry/au):

     atom    1 type  1   force =     0.00000000    0.00000000    0.00000000

     Total force =     0.000000     Total SCF correction =     0.000000


     Computing stress (Cartesian axis) and pressure


     negative rho (up, down):  1.840E-03 0.000E+00
          total   stress  (Ry/bohr**3)                   (kbar)     P=  -53.76
  -0.00036548  -0.00000000  -0.00000000        -53.76     -0.00     -0.00
  -0.00000000  -0.00036548   0.00000000         -0.00    -53.76      0.00
  -0.00000000   0.00000000  -0.00036548         -0.00      0.00    -53.76


     number of scf cycles    =   4
     number of bfgs steps    =   3

     enthalpy old            =     -46.6768470075 Ry
     enthalpy new            =     -46.6812045668 Ry

     CASE: enthalpy_new < enthalpy_old

     new trust radius        =       0.0946353571 bohr
     new conv_thr            =            1.0E-10 Ry

     new unit-cell volume =     91.72066 a.u.^3 (    13.59160 Ang^3 )
     density =      3.43132 g/cm^3

CELL_PARAMETERS (alat=  6.00000000)
  -0.596569633   0.000000000   0.596569633
  -0.000000000   0.596569633   0.596569633
  -0.596569633   0.596569633   0.000000000

ATOMIC_POSITIONS (alat)
Si       0.000000000   0.000000000   0.000000000



     Writing output data file relax.save/
     Check: negative starting charge=   -0.001638
     NEW-OLD atomic charge density approx. for the potential
     Check: negative starting charge=   -0.001259

     negative rho (up, down):  1.212E-03 0.000E+00
     extrapolated charge    3.39262, renormalised to    4.00000

     total cpu time spent up to now is        3.0 secs

     Self-consistent Calculation

     iteration #  1     ecut=    40.00 Ry     beta= 0.70
     Davidson diagonalization with overlap
     ethr =  1.00E-06,  avg # of iterations =  5.0

     negative rho (up, down):  1.252E-03 0.000E+00

     total cpu time spent up to now is        3.0 secs

     total energy              =     -46.68198993 Ry
     Harris-Foulkes estimate   =     -46.13266742 Ry
     estimated scf accuracy    <       0.00055923 Ry

     iteration #  2     ecut=    40.00 Ry     beta= 0.70
     Davidson diagonalization with overlap
     ethr =  1.40E-05,  avg # of iterations =  2.0

     negative rho (up, down):  1.263E-03 0.000E+00

     total cpu time spent up to now is        3.1 secs

     total energy              =     -46.68206938 Ry
     Harris-Foulkes estimate   =     -46.68214735 Ry
     estimated scf accuracy    <       0.00000615 Ry

     iteration #  3     ecut=    40.00 Ry     beta= 0.70
     Davidson diagonalization with overlap
     ethr =  1.54E-07,  avg # of iterations =  4.0

     negative rho (up, down):  1.448E-03 0.000E+00

     total cpu time spent up to now is        3.2 secs

     total energy              =     -46.68209138 Ry
     Harris-Foulkes estimate   =     -46.68208995 Ry
     estimated scf accuracy    <       0.00000224 Ry

     iteration #  4     ecut=    40.00 Ry     beta= 0.70
     Davidson diagonalization with overlap
     ethr =  5.59E-08,  avg # of iterations =  3.0

     negative rho (up, down):  1.442E-03 0.000E+00

     total cpu time spent up to now is        3.2 secs

     total energy              =     -46.68209191 Ry
     Harris-Foulkes estimate   =     -46.68209297 Ry
     estimated scf accuracy    <       0.00000011 Ry

     iteration #  5     ecut=    40.00 Ry     beta= 0.70
     Davidson diagonalization with overlap
     ethr =  2.65E-09,  avg # of iterations =  3.1

     negative rho (up, down):  1.461E-03 0.000E+00

     total cpu time spent up to now is        3.3 secs

     total energy              =     -46.68209205 Ry
     Harris-Foulkes estimate   =     -46.68209203 Ry
     estimated scf accuracy    <          5.3E-09 Ry

     iteration #  6     ecut=    40.00 Ry     beta= 0.70
     Davidson diagonalization with overlap
     ethr =  1.31E-10,  avg # of iterations =  3.0

     negative rho (up, down):  1.460E-03 0.000E+00

     total cpu time spent up to now is        3.4 secs

     total energy              =     -46.68209205 Ry
     Harris-Foulkes estimate   =     -46.68209205 Ry
     estimated scf accuracy    <          1.9E-10 Ry

     iteration #  7     ecut=    40.00 Ry     beta= 0.70
     Davidson diagonalization with overlap
     ethr =  4.87E-12,  avg # of iterations =  2.8

     negative rho (up, down):  1.460E-03 0.000E+00

     total cpu time spent up to now is        3.5 secs

     End of self-consistent calculation

          k = 0.0000 0.0000 0.0000 (   259 PWs)   bands (ev):

    -3.4171  23.5455  23.5455  23.5455  24.0557  24.0557

          k =-0.1048 0.1048-0.1048 (   232 PWs)   bands (ev):

    -2.9423  18.4866  21.9977  21.9977  25.5575  26.1219

          k =-0.2095 0.2095-0.2095 (   232 PWs)   bands (ev):

    -1.5250  13.0027  20.9858  20.9858  25.4229  25.7378

          k =-0.3143 0.3143-0.3143 (   232 PWs)   bands (ev):

     0.8135   8.1419  20.6938  20.6938  23.7630  23.7630

          k = 0.4191-0.4191 0.4191 (   228 PWs)   bands (ev):

     3.8387   4.2681  20.7750  20.7750  22.8782  22.8782

          k =-0.0000 0.2095-0.0000 (   230 PWs)   bands (ev):

    -2.7842  19.9908  19.9908  21.4859  22.2327  26.3637

          k =-0.1048 0.3143-0.1048 (   234 PWs)   bands (ev):

    -1.6817  15.1210  18.7454  20.6209  22.2435  25.0492

          k =-0.2095 0.4191-0.2095 (   236 PWs)   bands (ev):

     0.3490  10.0666  18.3183  19.0685  21.1042  27.7540

          k = 0.5238-0.3143 0.5238 (   237 PWs)   bands (ev):

     3.2698   5.7420  17.4311  18.7038  21.3896  25.7784

          k = 0.4191-0.2095 0.4191 (   230 PWs)   bands (ev):

     2.2027   7.0890  16.4770  19.8636  22.6660  24.9225

          k = 0.3143-0.1048 0.3143 (   227 PWs)   bands (ev):

    -0.4295  11.6680  16.3557  21.6492  24.7606  25.0190

          k = 0.2095-0.0000 0.2095 (   233 PWs)   bands (ev):

    -2.1535  16.5973  17.3863  23.4149  25.2978  26.7363

          k =-0.0000 0.4191-0.0000 (   234 PWs)   bands (ev):

    -0.8976  17.2291  17.2291  18.0628  18.5174  21.2932

          k =-0.1048 0.5238-0.1048 (   230 PWs)   bands (ev):

     0.8153  12.7928  15.2677  16.5337  18.9695  22.8351

          k = 0.6286-0.2095 0.6286 (   231 PWs)   bands (ev):

     3.4283   8.2772  13.1177  16.6666  19.2562  27.0492

          k = 0.5238-0.1048 0.5238 (   232 PWs)   bands (ev):

     4.4938   6.9149  11.8287  17.6204  20.3347  29.1110

          k = 0.4191-0.0000 0.4191 (   222 PWs)   bands (ev):

     1.5888  10.7175  11.8855  19.3640  22.2437  28.6269

          k =-0.0000 0.6286-0.0000 (   226 PWs)   bands (ev):

     2.2034  11.9389  15.5634  15.5634  16.6531  19.4682

          k = 0.7334-0.1048 0.7334 (   228 PWs)   bands (ev):

     4.4784   9.4450  11.6440  15.4233  17.7498  21.7585

          k = 0.6286-0.0000 0.6286 (   224 PWs)   bands (ev):

     7.1538   7.5974   8.3996  16.1126  18.6671  26.6137

          k = 0.0000-0.8381 0.0000 (   222 PWs)   bands (ev):

     5.9658   7.0890  15.0076  15.0076  16.0245  18.8936

          k =-0.2095 0.4191-0.0000 (   231 PWs)   bands (ev):

    -0.2731  13.6739  14.6627  18.7778  23.1976  24.3556

          k = 0.5238-0.3143 0.7334 (   231 PWs)   bands (ev):

     2.0508   9.3004  14.0998  16.4327  23.5406  25.8943

          k = 0.4191-0.2095 0.6286 (   232 PWs)   bands (ev):

     5.0789   5.4507  14.5843  15.0809  23.8154  24.9944

          k = 0.6286-0.2095 0.8381 (   226 PWs)   bands (ev):

     2.8176  11.9036  12.4047  13.1274  21.4779  22.9178

          k = 0.5238-0.1048 0.7334 (   230 PWs)   bands (ev):

     5.6848   8.1019  10.6460  13.0000  22.5435  26.8586

          k = 0.4191-0.0000 0.6286 (   233 PWs)   bands (ev):

     4.6480   8.9365  10.1221  14.2789  23.7904  27.8659

          k =-0.2095-0.8381 0.0000 (   226 PWs)   bands (ev):

     6.5598   7.6934  11.3120  12.4285  20.8935  22.4128

          k =-0.4191-0.8381 0.0000 (   224 PWs)   bands (ev):

     8.3428   8.3428   9.1671   9.9003  26.8045  27.3223

     the Fermi energy is    11.8162 ev

!    total energy              =     -46.68209205 Ry
     Harris-Foulkes estimate   =     -46.68209205 Ry
     estimated scf accuracy    <          2.4E-12 Ry

     total all-electron energy =       -46.682092 Ry

     The total energy is the sum of the following terms:

     one-electron contribution =       5.32661991 Ry
     hartree contribution      =       0.02549886 Ry
     xc contribution           =      -2.89492379 Ry
     ewald contribution        =     -10.24718183 Ry
     one-center paw contrib.   =     -38.89191454 Ry
     smearing contrib. (-TS)   =      -0.00019066 Ry

     convergence has been achieved in   7 iterations

     negative rho (up, down):  1.460E-03 0.000E+00

     Forces acting on atoms (cartesian axes, Ry/au):

     atom    1 type  1   force =     0.00000000    0.00000000    0.00000000

     Total force =     0.000000     Total SCF correction =     0.000000


     Computing stress (Cartesian axis) and pressure


     negative rho (up, down):  1.460E-03 0.000E+00
          total   stress  (Ry/bohr**3)                   (kbar)     P=   53.06
   0.00036067  -0.00000000   0.00000000         53.06     -0.00      0.00
  -0.00000000   0.00036067  -0.00000000         -0.00     53.06     -0.00
   0.00000000  -0.00000000   0.00036067          0.00     -0.00     53.06


     number of scf cycles    =   5
     number of bfgs steps    =   4

     enthalpy old            =     -46.6812045668 Ry
     enthalpy new            =     -46.6820920517 Ry

     CASE: enthalpy_new < enthalpy_old

     new trust radius        =       0.0437340974 bohr
     new conv_thr            =            1.0E-10 Ry

     new unit-cell volume =     98.14788 a.u.^3 (    14.54402 Ang^3 )
     density =      3.20662 g/cm^3

CELL_PARAMETERS (alat=  6.00000000)
  -0.610190907   0.000000000   0.610190907
  -0.000000000   0.610190907   0.610190907
  -0.610190907   0.610190907   0.000000000

ATOMIC_POSITIONS (alat)
Si       0.000000000   0.000000000   0.000000000



     Writing output data file relax.save/
     Check: negative starting charge=   -0.001259
     NEW-OLD atomic charge density approx. for the potential
     Check: negative starting charge=   -0.001447

     negative rho (up, down):  1.730E-03 0.000E+00
     extrapolated charge    4.26190, renormalised to    4.00000

     total cpu time spent up to now is        3.7 secs

     Self-consistent Calculation

     iteration #  1     ecut=    40.00 Ry     beta= 0.70
     Davidson diagonalization with overlap
     ethr =  1.00E-06,  avg # of iterations =  4.0

     negative rho (up, down):  1.714E-03 0.000E+00

     total cpu time spent up to now is        3.8 secs

     total energy              =     -46.68289924 Ry
     Harris-Foulkes estimate   =     -46.92379874 Ry
     estimated scf accuracy    <       0.00000825 Ry

     iteration #  2     ecut=    40.00 Ry     beta= 0.70
     Davidson diagonalization with overlap
     ethr =  2.06E-07,  avg # of iterations =  3.7

     negative rho (up, down):  1.706E-03 0.000E+00

     total cpu time spent up to now is        3.9 secs

     total energy              =     -46.68291917 Ry
     Harris-Foulkes estimate   =     -46.68292894 Ry
     estimated scf accuracy    <       0.00000411 Ry

     iteration #  3     ecut=    40.00 Ry     beta= 0.70
     Davidson diagonalization with overlap
     ethr =  1.03E-07,  avg # of iterations =  1.4

     negative rho (up, down):  1.686E-03 0.000E+00

     total cpu time spent up to now is        3.9 secs

     total energy              =     -46.68291646 Ry
     Harris-Foulkes estimate   =     -46.68291967 Ry
     estimated scf accuracy    <       0.00000084 Ry

     iteration #  4     ecut=    40.00 Ry     beta= 0.70
     Davidson diagonalization with overlap
     ethr =  2.09E-08,  avg # of iterations =  3.0

     negative rho (up, down):  1.656E-03 0.000E+00

     total cpu time spent up to now is        4.0 secs

     total energy              =     -46.68291729 Ry
     Harris-Foulkes estimate   =     -46.68291727 Ry
     estimated scf accuracy    <       0.00000011 Ry

     iteration #  5     ecut=    40.00 Ry     beta= 0.70
     Davidson diagonalization with overlap
     ethr =  2.84E-09,  avg # of iterations =  3.0

     negative rho (up, down):  1.630E-03 0.000E+00

     total cpu time spent up to now is        4.0 secs

     total energy              =     -46.68291729 Ry
     Harris-Foulkes estimate   =     -46.68291732 Ry
     estimated scf accuracy    <       0.00000003 Ry

     iteration #  6     ecut=    40.00 Ry     beta= 0.70
     Davidson diagonalization with overlap
     ethr =  6.62E-10,  avg # of iterations =  3.2

     negative rho (up, down):  1.632E-03 0.000E+00

     total cpu time spent up to now is        4.1 secs

     total energy              =     -46.68291733 Ry
     Harris-Foulkes estimate   =     -46.68291733 Ry
     estimated scf accuracy    <          2.7E-10 Ry

     iteration #  7     ecut=    40.00 Ry     beta= 0.70
     Davidson diagonalization with overlap
     ethr =  6.82E-12,  avg # of iterations =  3.1

     negative rho (up, down):  1.632E-03 0.000E+00

     total cpu time spent up to now is        4.1 secs

     End of self-consistent calculation

          k = 0.0000 0.0000 0.0000 (   259 PWs)   bands (ev):

    -3.7331  21.7458  21.7458  21.7458  22.8122  22.8122

          k =-0.1024 0.1024-0.1024 (   232 PWs)   bands (ev):

    -3.2797  17.2217  20.4812  20.4812  23.9813  24.5479

          k =-0.2049 0.2049-0.2049 (   232 PWs)   bands (ev):

    -1.9262  11.9918  19.5035  19.5035  23.8338  24.2788

          k =-0.3073 0.3073-0.3073 (   232 PWs)   bands (ev):

     0.3058   7.3435  19.1687  19.1687  22.4795  22.4795

          k = 0.4097-0.4097 0.4097 (   228 PWs)   bands (ev):

     3.0786   3.7566  19.1810  19.1810  21.7028  21.7028

          k =-0.0000 0.2049-0.0000 (   230 PWs)   bands (ev):

    -3.1287  18.6101  18.6101  20.3855  20.4343  25.0154

          k =-0.1024 0.3073-0.1024 (   234 PWs)   bands (ev):

    -2.0756  14.0183  17.4200  19.0820  20.9836  23.6150

          k =-0.2049 0.4097-0.2049 (   236 PWs)   bands (ev):

    -0.1363   9.1843  17.0027  17.6005  19.9703  26.0034

          k = 0.5121-0.3073 0.5121 (   237 PWs)   bands (ev):

     2.6380   5.0636  16.1226  17.3549  20.1579  24.3205

          k = 0.4097-0.2049 0.4097 (   230 PWs)   bands (ev):

     1.6303   6.3407  15.2437  18.4295  21.3428  23.5366

          k = 0.3073-0.1024 0.3073 (   227 PWs)   bands (ev):

    -0.8798  10.7220  15.1373  20.0587  23.3264  23.6932

          k = 0.2049-0.0000 0.2049 (   233 PWs)   bands (ev):

    -2.5264  15.5023  16.0583  21.6034  23.9973  25.0677

          k =-0.0000 0.4097-0.0000 (   234 PWs)   bands (ev):

    -1.3262  15.9756  15.9756  16.5888  17.5591  19.9989

          k =-0.1024 0.5121-0.1024 (   230 PWs)   bands (ev):

     0.3112  11.7823  14.0783  15.3078  17.8629  21.3792

          k = 0.6146-0.2049 0.6146 (   231 PWs)   bands (ev):

     2.8062   7.4710  12.0478  15.4307  18.0839  25.4178

          k = 0.5121-0.1024 0.5121 (   232 PWs)   bands (ev):

     3.8096   6.1921  10.8148  16.3353  19.0967  27.4838

          k = 0.4097-0.0000 0.4097 (   222 PWs)   bands (ev):

     1.0482   9.8965  10.7880  17.9798  20.9175  26.9436

          k =-0.0000 0.6146-0.0000 (   226 PWs)   bands (ev):

     1.6409  10.8888  14.3793  14.3793  15.7813  18.0767

          k = 0.7170-0.1024 0.7170 (   228 PWs)   bands (ev):

     3.8242   8.4949  10.7379  14.2437  16.6634  20.3240

          k = 0.6146-0.0000 0.6146 (   224 PWs)   bands (ev):

     6.4833   6.6468   7.6115  14.9014  17.5058  25.0064

          k = 0.0000-0.8194 0.0000 (   222 PWs)   bands (ev):

     5.3438   6.1662  13.8459  13.8459  15.1816  17.5009

          k =-0.2049 0.4097-0.0000 (   231 PWs)   bands (ev):

    -0.7298  12.7181  13.4382  17.4472  21.8901  22.8165

          k = 0.5121-0.3073 0.7170 (   231 PWs)   bands (ev):

     1.4897   8.4582  12.9628  15.2636  22.1109  24.3729

          k = 0.4097-0.2049 0.6146 (   232 PWs)   bands (ev):

     4.2673   4.8875  13.3322  14.0775  22.3164  23.5837

          k = 0.6146-0.2049 0.8194 (   226 PWs)   bands (ev):

     2.2267  11.0267  11.1889  12.1934  20.2438  21.3800

          k = 0.5121-0.1024 0.7170 (   230 PWs)   bands (ev):

     4.9639   7.3048   9.6769  11.9959  21.1632  25.2279

          k = 0.4097-0.0000 0.6146 (   233 PWs)   bands (ev):

     3.9683   8.1916   9.0979  13.2088  22.3237  26.3374

          k =-0.2049-0.8194 0.0000 (   226 PWs)   bands (ev):

     5.9136   6.7232  10.4610  11.3839  19.6845  20.8862

          k =-0.4097-0.8194 0.0000 (   224 PWs)   bands (ev):

     7.6227   7.6227   7.9077   9.1877  25.0546  25.8185

     the Fermi energy is    10.7958 ev

!    total energy              =     -46.68291733 Ry
     Harris-Foulkes estimate   =     -46.68291733 Ry
     estimated scf accuracy    <          4.1E-13 Ry

     total all-electron energy =       -46.682917 Ry

     The total energy is the sum of the following terms:

     one-electron contribution =       5.04082617 Ry
     hartree contribution      =       0.03200824 Ry
     xc contribution           =      -2.84791860 Ry
     ewald contribution        =     -10.01844529 Ry
     one-center paw contrib.   =     -38.88909048 Ry
     smearing contrib. (-TS)   =      -0.00029736 Ry

     convergence has been achieved in   7 iterations

     negative rho (up, down):  1.632E-03 0.000E+00

     Forces acting on atoms (cartesian axes, Ry/au):

     atom    1 type  1   force =     0.00000000    0.00000000    0.00000000

     Total force =     0.000000     Total SCF correction =     0.000000


     Computing stress (Cartesian axis) and pressure


     negative rho (up, down):  1.632E-03 0.000E+00
          total   stress  (Ry/bohr**3)                   (kbar)     P=  -10.32
  -0.00007012   0.00000000  -0.00000000        -10.32      0.00     -0.00
   0.00000000  -0.00007012   0.00000000          0.00    -10.32      0.00
  -0.00000000   0.00000000  -0.00007012         -0.00      0.00    -10.32


     number of scf cycles    =   6
     number of bfgs steps    =   5

     enthalpy old            =     -46.6820920517 Ry
     enthalpy new            =     -46.6829173267 Ry

     CASE: enthalpy_new < enthalpy_old

     new trust radius        =       0.0074757629 bohr
     new conv_thr            =            1.0E-10 Ry

     new unit-cell volume =     97.04114 a.u.^3 (    14.38001 Ang^3 )
     density =      3.24319 g/cm^3

CELL_PARAMETERS (alat=  6.00000000)
  -0.607888666   0.000000000   0.607888666
  -0.000000000   0.607888666   0.607888666
  -0.607888666   0.607888666   0.000000000

ATOMIC_POSITIONS (alat)
Si       0.000000000   0.000000000   0.000000000



     Writing output data file relax.save/
     Check: negative starting charge=   -0.001447
     NEW-OLD atomic charge density approx. for the potential
     Check: negative starting charge=   -0.001416

     negative rho (up, down):  1.585E-03 0.000E+00
     extrapolated charge    3.95439, renormalised to    4.00000

     total cpu time spent up to now is        4.3 secs

     Self-consistent Calculation

     iteration #  1     ecut=    40.00 Ry     beta= 0.70
     Davidson diagonalization with overlap
     ethr =  1.00E-06,  avg # of iterations =  2.2

     Threshold (ethr) on eigenvalues was too large:
     Diagonalizing with lowered threshold

     Davidson diagonalization with overlap
     ethr =  2.04E-08,  avg # of iterations =  2.5

     negative rho (up, down):  1.587E-03 0.000E+00

     total cpu time spent up to now is        4.4 secs

     total energy              =     -46.68296248 Ry
     Harris-Foulkes estimate   =     -46.64139120 Ry
     estimated scf accuracy    <       0.00000081 Ry

     iteration #  2     ecut=    40.00 Ry     beta= 0.70
     Davidson diagonalization with overlap
     ethr =  2.02E-08,  avg # of iterations =  2.9

     negative rho (up, down):  1.588E-03 0.000E+00

     total cpu time spent up to now is        4.4 secs

     total energy              =     -46.68296311 Ry
     Harris-Foulkes estimate   =     -46.68296348 Ry
     estimated scf accuracy    <       0.00000007 Ry

     iteration #  3     ecut=    40.00 Ry     beta= 0.70
     Davidson diagonalization with overlap
     ethr =  1.67E-09,  avg # of iterations =  3.2

     negative rho (up, down):  1.592E-03 0.000E+00

     total cpu time spent up to now is        4.5 secs

     total energy              =     -46.68296314 Ry
     Harris-Foulkes estimate   =     -46.68296317 Ry
     estimated scf accuracy    <          5.6E-09 Ry

     iteration #  4     ecut=    40.00 Ry     beta= 0.70
     Davidson diagonalization with overlap
     ethr =  1.39E-10,  avg # of iterations =  3.0

     negative rho (up, down):  1.601E-03 0.000E+00

     total cpu time spent up to now is        4.6 secs

     total energy              =     -46.68296313 Ry
     Harris-Foulkes estimate   =     -46.68296314 Ry
     estimated scf accuracy    <          1.9E-09 Ry

     iteration #  5     ecut=    40.00 Ry     beta= 0.70
     Davidson diagonalization with overlap
     ethr =  4.67E-11,  avg # of iterations =  3.6

     negative rho (up, down):  1.602E-03 0.000E+00

     total cpu time spent up to now is        4.7 secs

     End of self-consistent calculation

          k = 0.0000 0.0000 0.0000 (   259 PWs)   bands (ev):

    -3.6817  22.0399  22.0399  22.0399  23.0161  23.0161

          k =-0.1028 0.1028-0.1028 (   232 PWs)   bands (ev):

    -3.2248  17.4304  20.7320  20.7320  24.2383  24.8025

          k =-0.2056 0.2056-0.2056 (   232 PWs)   bands (ev):

    -1.8607  12.1579  19.7477  19.7477  24.0943  24.5163

          k =-0.3084 0.3084-0.3084 (   232 PWs)   bands (ev):

     0.3891   7.4741  19.4193  19.4193  22.6886  22.6886

          k = 0.4113-0.4113 0.4113 (   228 PWs)   bands (ev):

     3.2034   3.8400  19.4414  19.4414  21.8955  21.8955

          k =-0.0000 0.2056-0.0000 (   230 PWs)   bands (ev):

    -3.0726  18.8372  18.8372  20.5660  20.7279  25.2364

          k =-0.1028 0.3084-0.1028 (   234 PWs)   bands (ev):

    -2.0114  14.2000  17.6376  19.3363  21.1884  23.8483

          k =-0.2056 0.4113-0.2056 (   236 PWs)   bands (ev):

    -0.0568   9.3290  17.2186  17.8415  20.1553  26.2895

          k = 0.5141-0.3084 0.5141 (   237 PWs)   bands (ev):

     2.7424   5.1737  16.3379  17.5764  20.3580  24.5584

          k = 0.4113-0.2056 0.4113 (   230 PWs)   bands (ev):

     1.7244   6.4628  15.4463  18.6652  21.5583  23.7625

          k = 0.3084-0.1028 0.3084 (   227 PWs)   bands (ev):

    -0.8061  10.8774  15.3371  20.3201  23.5604  23.9097

          k = 0.2056-0.0000 0.2056 (   233 PWs)   bands (ev):

    -2.4656  15.6825  16.2765  21.8993  24.2105  25.3403

          k =-0.0000 0.4113-0.0000 (   234 PWs)   bands (ev):

    -1.2561  16.1810  16.1810  16.8332  17.7164  20.2067

          k =-0.1028 0.5141-0.1028 (   230 PWs)   bands (ev):

     0.3937  11.9493  14.2737  15.5086  18.0428  21.6157

          k = 0.6169-0.2056 0.6169 (   231 PWs)   bands (ev):

     2.9087   7.6031  12.2232  15.6331  18.2745  25.6843

          k = 0.5141-0.1028 0.5141 (   232 PWs)   bands (ev):

     3.9229   6.3098  10.9807  16.5460  19.2982  27.7500

          k = 0.4113-0.0000 0.4113 (   222 PWs)   bands (ev):

     1.1369  10.0310  10.9680  18.2072  21.1337  27.2177

          k =-0.0000 0.6169-0.0000 (   226 PWs)   bands (ev):

     1.7332  11.0624  14.5730  14.5730  15.9244  18.3012

          k = 0.7197-0.1028 0.7197 (   228 PWs)   bands (ev):

     3.9320   8.6518  10.8855  14.4367  16.8404  20.5571

          k = 0.6169-0.0000 0.6169 (   224 PWs)   bands (ev):

     6.5928   6.8081   7.7359  15.0997  17.6948  25.2689

          k = 0.0000-0.8225 0.0000 (   222 PWs)   bands (ev):

     5.4451   6.3190  14.0358  14.0358  15.3199  17.7261

          k =-0.2056 0.4113-0.0000 (   231 PWs)   bands (ev):

    -0.6551  12.8751  13.6395  17.6658  22.1043  23.0662

          k = 0.5141-0.3084 0.7197 (   231 PWs)   bands (ev):

     1.5819   8.5964  13.1495  15.4546  22.3447  24.6216

          k = 0.4113-0.2056 0.6169 (   232 PWs)   bands (ev):

     4.4009   4.9794  13.5364  14.2426  22.5610  23.8147

          k = 0.6169-0.2056 0.8225 (   226 PWs)   bands (ev):

     2.3238  11.1705  11.3896  12.3445  20.4458  21.6302

          k = 0.5141-0.1028 0.7197 (   230 PWs)   bands (ev):

     5.0835   7.4357   9.8352  12.1586  21.3891  25.4941

          k = 0.4113-0.0000 0.6169 (   233 PWs)   bands (ev):

     4.0806   8.3134   9.2656  13.3830  22.5637  26.5881

          k =-0.2056-0.8225 0.0000 (   226 PWs)   bands (ev):

     6.0190   6.8845  10.6005  11.5528  19.8823  21.1347

          k =-0.4113-0.8225 0.0000 (   224 PWs)   bands (ev):

     7.7404   7.7404   8.1136   9.3047  25.3402  26.0650

     the Fermi energy is    10.9616 ev

!    total energy              =     -46.68296314 Ry
     Harris-Foulkes estimate   =     -46.68296314 Ry
     estimated scf accuracy    <          7.3E-12 Ry

     total all-electron energy =       -46.682963 Ry

     The total energy is the sum of the following terms:

     one-electron contribution =       5.08795979 Ry
     hartree contribution      =       0.03076258 Ry
     xc contribution           =      -2.85558737 Ry
     ewald contribution        =     -10.05638558 Ry
     one-center paw contrib.   =     -38.88944827 Ry
     smearing contrib. (-TS)   =      -0.00026429 Ry

     convergence has been achieved in   5 iterations

     negative rho (up, down):  1.602E-03 0.000E+00

     Forces acting on atoms (cartesian axes, Ry/au):

     atom    1 type  1   force =     0.00000000    0.00000000    0.00000000

     Total force =     0.000000     Total SCF correction =     0.000000


     Computing stress (Cartesian axis) and pressure


     negative rho (up, down):  1.602E-03 0.000E+00
          total   stress  (Ry/bohr**3)                   (kbar)     P=   -1.68
  -0.00001144   0.00000000   0.00000000         -1.68      0.00      0.00
   0.00000000  -0.00001144   0.00000000          0.00     -1.68      0.00
   0.00000000   0.00000000  -0.00001144          0.00      0.00     -1.68


     number of scf cycles    =   7
     number of bfgs steps    =   6

     enthalpy old            =     -46.6829173267 Ry
     enthalpy new            =     -46.6829631382 Ry

     CASE: enthalpy_new < enthalpy_old

     new trust radius        =       0.0014420862 bohr
     new conv_thr            =            1.0E-10 Ry

     new unit-cell volume =     96.82821 a.u.^3 (    14.34846 Ang^3 )
     density =      3.25032 g/cm^3

CELL_PARAMETERS (alat=  6.00000000)
  -0.607443720   0.000000000   0.607443720
  -0.000000000   0.607443720   0.607443720
  -0.607443720   0.607443720   0.000000000

ATOMIC_POSITIONS (alat)
Si       0.000000000   0.000000000   0.000000000



     Writing output data file relax.save/
     Check: negative starting charge=   -0.001416
     NEW-OLD atomic charge density approx. for the potential
     Check: negative starting charge=   -0.001410

     negative rho (up, down):  1.593E-03 0.000E+00
     extrapolated charge    3.99121, renormalised to    4.00000

     total cpu time spent up to now is        4.9 secs

     Self-consistent Calculation

     iteration #  1     ecut=    40.00 Ry     beta= 0.70
     Davidson diagonalization with overlap
     ethr =  1.00E-06,  avg # of iterations =  2.0

     Threshold (ethr) on eigenvalues was too large:
     Diagonalizing with lowered threshold

     Davidson diagonalization with overlap
     ethr =  6.73E-10,  avg # of iterations =  2.9

     negative rho (up, down):  1.593E-03 0.000E+00

     total cpu time spent up to now is        5.0 secs

     total energy              =     -46.68296428 Ry
     Harris-Foulkes estimate   =     -46.67493039 Ry
     estimated scf accuracy    <       0.00000003 Ry

     iteration #  2     ecut=    40.00 Ry     beta= 0.70
     Davidson diagonalization with overlap
     ethr =  6.72E-10,  avg # of iterations =  3.1

     negative rho (up, down):  1.593E-03 0.000E+00

     total cpu time spent up to now is        5.0 secs

     total energy              =     -46.68296430 Ry
     Harris-Foulkes estimate   =     -46.68296432 Ry
     estimated scf accuracy    <          2.6E-09 Ry

     iteration #  3     ecut=    40.00 Ry     beta= 0.70
     Davidson diagonalization with overlap
     ethr =  6.45E-11,  avg # of iterations =  3.0

     negative rho (up, down):  1.594E-03 0.000E+00

     total cpu time spent up to now is        5.1 secs

     total energy              =     -46.68296430 Ry
     Harris-Foulkes estimate   =     -46.68296431 Ry
     estimated scf accuracy    <          2.4E-10 Ry

     iteration #  4     ecut=    40.00 Ry     beta= 0.70
     Davidson diagonalization with overlap
     ethr =  6.12E-12,  avg # of iterations =  3.0

     negative rho (up, down):  1.595E-03 0.000E+00

     total cpu time spent up to now is        5.2 secs

     End of self-consistent calculation

          k = 0.0000 0.0000 0.0000 (   259 PWs)   bands (ev):

    -3.6717  22.0973  22.0973  22.0973  23.0558  23.0558

          k =-0.1029 0.1029-0.1029 (   232 PWs)   bands (ev):

    -3.2141  17.4710  20.7808  20.7808  24.2884  24.8523

          k =-0.2058 0.2058-0.2058 (   232 PWs)   bands (ev):

    -1.8479  12.1903  19.7953  19.7953  24.1450  24.5627

          k =-0.3087 0.3087-0.3087 (   232 PWs)   bands (ev):

     0.4053   7.4996  19.4682  19.4682  22.7294  22.7294

          k = 0.4116-0.4116 0.4116 (   228 PWs)   bands (ev):

     3.2277   3.8562  19.4922  19.4922  21.9331  21.9331

          k =-0.0000 0.2058-0.0000 (   230 PWs)   bands (ev):

    -3.0617  18.8814  18.8814  20.6012  20.7852  25.2795

          k =-0.1029 0.3087-0.1029 (   234 PWs)   bands (ev):

    -1.9988  14.2353  17.6800  19.3858  21.2283  23.8938

          k =-0.2058 0.4116-0.2058 (   236 PWs)   bands (ev):

    -0.0413   9.3572  17.2607  17.8884  20.1913  26.3453

          k = 0.5145-0.3087 0.5145 (   237 PWs)   bands (ev):

     2.7628   5.1952  16.3799  17.6195  20.3971  24.6047

          k = 0.4116-0.2058 0.4116 (   230 PWs)   bands (ev):

     1.7428   6.4867  15.4858  18.7112  21.6003  23.8065

          k = 0.3087-0.1029 0.3087 (   227 PWs)   bands (ev):

    -0.7917  10.9077  15.3761  20.3710  23.6061  23.9519

          k = 0.2058-0.0000 0.2058 (   233 PWs)   bands (ev):

    -2.4537  15.7176  16.3190  21.9571  24.2520  25.3935

          k =-0.0000 0.4116-0.0000 (   234 PWs)   bands (ev):

    -1.2425  16.2211  16.2211  16.8808  17.7470  20.2474

          k =-0.1029 0.5145-0.1029 (   230 PWs)   bands (ev):

     0.4099  11.9818  14.3118  15.5477  18.0779  21.6619

          k = 0.6173-0.2058 0.6173 (   231 PWs)   bands (ev):

     2.9286   7.6289  12.2574  15.6726  18.3117  25.7363

          k = 0.5145-0.1029 0.5145 (   232 PWs)   bands (ev):

     3.9450   6.3328  11.0130  16.5870  19.3375  27.8019

          k = 0.4116-0.0000 0.4116 (   222 PWs)   bands (ev):

     1.1542  10.0572  11.0030  18.2515  21.1758  27.2712

          k =-0.0000 0.6173-0.0000 (   226 PWs)   bands (ev):

     1.7512  11.0961  14.6108  14.6108  15.9522  18.3452

          k = 0.7202-0.1029 0.7202 (   228 PWs)   bands (ev):

     3.9530   8.6823  10.9143  14.4743  16.8749  20.6026

          k = 0.6173-0.0000 0.6173 (   224 PWs)   bands (ev):

     6.6141   6.8393   7.7603  15.1383  17.7317  25.3201

          k = 0.0000-0.8231 0.0000 (   222 PWs)   bands (ev):

     5.4649   6.3487  14.0729  14.0729  15.3468  17.7701

          k =-0.2058 0.4116-0.0000 (   231 PWs)   bands (ev):

    -0.6405  12.9056  13.6787  17.7084  22.1461  23.1150

          k = 0.5145-0.3087 0.7202 (   231 PWs)   bands (ev):

     1.5998   8.6233  13.1859  15.4918  22.3903  24.6701

          k = 0.4116-0.2058 0.6173 (   232 PWs)   bands (ev):

     4.4269   4.9973  13.5762  14.2748  22.6087  23.8597

          k = 0.6173-0.2058 0.8231 (   226 PWs)   bands (ev):

     2.3427  11.1986  11.4287  12.3741  20.4852  21.6790

          k = 0.5145-0.1029 0.7202 (   230 PWs)   bands (ev):

     5.1067   7.4612   9.8661  12.1904  21.4332  25.5460

          k = 0.4116-0.0000 0.6173 (   233 PWs)   bands (ev):

     4.1025   8.3372   9.2984  13.4170  22.6104  26.6369

          k =-0.2058-0.8231 0.0000 (   226 PWs)   bands (ev):

     6.0395   6.9158  10.6278  11.5858  19.9208  21.1832

          k =-0.4116-0.8231 0.0000 (   224 PWs)   bands (ev):

     7.7633   7.7633   8.1538   9.3274  25.3960  26.1131

     the Fermi energy is    10.9941 ev

!    total energy              =     -46.68296430 Ry
     Harris-Foulkes estimate   =     -46.68296430 Ry
     estimated scf accuracy    <          7.5E-11 Ry

     total all-electron energy =       -46.682964 Ry

     The total energy is the sum of the following terms:

     one-electron contribution =       5.09711730 Ry
     hartree contribution      =       0.03052846 Ry
     xc contribution           =      -2.85708197 Ry
     ewald contribution        =     -10.06375135 Ry
     one-center paw contrib.   =     -38.88951861 Ry
     smearing contrib. (-TS)   =      -0.00025813 Ry

     convergence has been achieved in   4 iterations

     negative rho (up, down):  1.595E-03 0.000E+00

     Forces acting on atoms (cartesian axes, Ry/au):

     atom    1 type  1   force =     0.00000000    0.00000000    0.00000000

     Total force =     0.000000     Total SCF correction =     0.000000


     Computing stress (Cartesian axis) and pressure


     negative rho (up, down):  1.595E-03 0.000E+00
          total   stress  (Ry/bohr**3)                   (kbar)     P=    0.07
   0.00000050  -0.00000000   0.00000000          0.07     -0.00      0.00
  -0.00000000   0.00000050  -0.00000000         -0.00      0.07     -0.00
   0.00000000  -0.00000000   0.00000050          0.00     -0.00      0.07


     bfgs converged in   8 scf cycles and   7 bfgs steps
     (criteria: energy <  1.0E-04 Ry, force <  1.0E-03Ry/Bohr, cell <  5.0E-01kbar)

     End of BFGS Geometry Optimization

     Final enthalpy =     -46.6829643032 Ry
Begin final coordinates
     new unit-cell volume =     96.82821 a.u.^3 (    14.34846 Ang^3 )
     density =      3.25032 g/cm^3

CELL_PARAMETERS (alat=  6.00000000)
  -0.607443720   0.000000000   0.607443720
  -0.000000000   0.607443720   0.607443720
  -0.607443720   0.607443720   0.000000000

ATOMIC_POSITIONS (alat)
Si       0.000000000   0.000000000   0.000000000
End final coordinates



     Writing output data file relax.save/

     A final scf calculation at the relaxed structure.
     The G-vectors are recalculated for the final unit cell
     Results may differ from those at the preceding step.
 
     Parallelization info
     --------------------
     sticks:   dense  smooth     PW     G-vecs:    dense   smooth      PW
     Min          91      73     24                 1161      821     161
     Max          92      74     25                 1162      823     162
     Sum         367     295     97                 4645     3287     645
 


     bravais-lattice index     =            2
     lattice parameter (alat)  =       6.0000  a.u.
     unit-cell volume          =      96.8282 (a.u.)^3
     number of atoms/cell      =            1
     number of atomic types    =            1
     number of electrons       =         4.00
     number of Kohn-Sham states=            6
     kinetic-energy cutoff     =      40.0000  Ry
     charge density cutoff     =     200.0000  Ry
     convergence threshold     =      1.0E-10
     mixing beta               =       0.7000
     number of iterations used =            8  plain     mixing
     Exchange-correlation      = SLA PW PBX PBC ( 1  4  3  4 0 0)

     celldm(1)=   6.000000  celldm(2)=   0.000000  celldm(3)=   0.000000
     celldm(4)=   0.000000  celldm(5)=   0.000000  celldm(6)=   0.000000

     crystal axes: (cart. coord. in units of alat)
               a(1) = (  -0.607444   0.000000   0.607444 )  
               a(2) = (  -0.000000   0.607444   0.607444 )  
               a(3) = (  -0.607444   0.607444   0.000000 )  

     reciprocal axes: (cart. coord. in units 2 pi/alat)
               b(1) = ( -0.823122 -0.823122  0.823122 )  
               b(2) = (  0.823122  0.823122  0.823122 )  
               b(3) = ( -0.823122  0.823122 -0.823122 )  


     PseudoPot. # 1 for Si read from file:
     ./Si.GGA-PBE-paw.UPF
     MD5 check sum: 55a399ac9c9f37f95204fc9e5818eb3e
     Pseudo is Projector augmented-wave + core cor, Zval =  4.0
     Generated using ATOMPAW code
     Shape of augmentation charge: BESSEL
     Using radial grid of 2342 points,  4 beta functions with: 
                l(1) =   0
                l(2) =   0
                l(3) =   1
                l(4) =   1
     Q(r) pseudized with 0 coefficients 


     atomic species   valence    mass     pseudopotential
        Si             4.00    28.08550     Si( 1.00)

     48 Sym. Ops., with inversion, found



   Cartesian axes

     site n.     atom                  positions (alat units)
         1           Si  tau(   1) = (   0.0000000   0.0000000   0.0000000  )

     number of k points=    29  Fermi-Dirac smearing, width (Ry)=  0.0020
                       cart. coord. in units 2pi/alat
        k(    1) = (   0.0000000   0.0000000   0.0000000), wk =   0.0039062
        k(    2) = (  -0.1028902   0.1028902  -0.1028902), wk =   0.0312500
        k(    3) = (  -0.2057804   0.2057804  -0.2057804), wk =   0.0312500
        k(    4) = (  -0.3086706   0.3086706  -0.3086706), wk =   0.0312500
        k(    5) = (   0.4115608  -0.4115608   0.4115608), wk =   0.0156250
        k(    6) = (  -0.0000000   0.2057804  -0.0000000), wk =   0.0234375
        k(    7) = (  -0.1028902   0.3086706  -0.1028902), wk =   0.0937500
        k(    8) = (  -0.2057804   0.4115608  -0.2057804), wk =   0.0937500
        k(    9) = (   0.5144510  -0.3086706   0.5144510), wk =   0.0937500
        k(   10) = (   0.4115608  -0.2057804   0.4115608), wk =   0.0937500
        k(   11) = (   0.3086706  -0.1028902   0.3086706), wk =   0.0937500
        k(   12) = (   0.2057804  -0.0000000   0.2057804), wk =   0.0468750
        k(   13) = (  -0.0000000   0.4115608  -0.0000000), wk =   0.0234375
        k(   14) = (  -0.1028902   0.5144510  -0.1028902), wk =   0.0937500
        k(   15) = (   0.6173411  -0.2057804   0.6173411), wk =   0.0937500
        k(   16) = (   0.5144510  -0.1028902   0.5144510), wk =   0.0937500
        k(   17) = (   0.4115608  -0.0000000   0.4115608), wk =   0.0468750
        k(   18) = (  -0.0000000   0.6173411  -0.0000000), wk =   0.0234375
        k(   19) = (   0.7202313  -0.1028902   0.7202313), wk =   0.0937500
        k(   20) = (   0.6173411  -0.0000000   0.6173411), wk =   0.0468750
        k(   21) = (   0.0000000  -0.8231215   0.0000000), wk =   0.0117188
        k(   22) = (  -0.2057804   0.4115608  -0.0000000), wk =   0.0937500
        k(   23) = (   0.5144510  -0.3086706   0.7202313), wk =   0.1875000
        k(   24) = (   0.4115608  -0.2057804   0.6173411), wk =   0.0937500
        k(   25) = (   0.6173411  -0.2057804   0.8231215), wk =   0.0937500
        k(   26) = (   0.5144510  -0.1028902   0.7202313), wk =   0.1875000
        k(   27) = (   0.4115608  -0.0000000   0.6173411), wk =   0.0937500
        k(   28) = (  -0.2057804  -0.8231215   0.0000000), wk =   0.0468750
        k(   29) = (  -0.4115608  -0.8231215   0.0000000), wk =   0.0234375

     Dense  grid:     4645 G-vectors     FFT dimensions: (  24,  24,  24)

     Smooth grid:     3287 G-vectors     FFT dimensions: (  24,  24,  24)

     Estimated max dynamical RAM per process >       2.52 MB

     Estimated total dynamical RAM >      10.09 MB

     Initial potential from superposition of free atoms
     Check: negative starting charge=   -0.001287

     starting charge    3.99937, renormalised to    4.00000

     negative rho (up, down):  1.287E-03 0.000E+00
     Starting wfcs are    8 randomized atomic wfcs
     Checking if some PAW data can be deallocated... 

     total cpu time spent up to now is        5.4 secs

     Self-consistent Calculation

     iteration #  1     ecut=    40.00 Ry     beta= 0.70
     Davidson diagonalization with overlap
     ethr =  1.00E-06,  avg # of iterations =  9.9

     negative rho (up, down):  1.428E-03 0.000E+00

     total cpu time spent up to now is        5.5 secs

     total energy              =     -46.68298228 Ry
     Harris-Foulkes estimate   =     -46.68473784 Ry
     estimated scf accuracy    <       0.00441425 Ry

     iteration #  2     ecut=    40.00 Ry     beta= 0.70
     Davidson diagonalization with overlap
     ethr =  1.10E-04,  avg # of iterations =  1.0

     negative rho (up, down):  1.572E-03 0.000E+00

     total cpu time spent up to now is        5.6 secs

     total energy              =     -46.68305821 Ry
     Harris-Foulkes estimate   =     -46.68312901 Ry
     estimated scf accuracy    <       0.00020320 Ry

     iteration #  3     ecut=    40.00 Ry     beta= 0.70
     Davidson diagonalization with overlap
     ethr =  5.08E-06,  avg # of iterations =  1.0

     negative rho (up, down):  1.636E-03 0.000E+00

     total cpu time spent up to now is        5.6 secs

     total energy              =     -46.68307009 Ry
     Harris-Foulkes estimate   =     -46.68307036 Ry
     estimated scf accuracy    <       0.00000078 Ry

     iteration #  4     ecut=    40.00 Ry     beta= 0.70
     Davidson diagonalization with overlap
     ethr =  1.94E-08,  avg # of iterations =  3.5

     negative rho (up, down):  1.586E-03 0.000E+00

     total cpu time spent up to now is        5.7 secs

     total energy              =     -46.68307329 Ry
     Harris-Foulkes estimate   =     -46.68307346 Ry
     estimated scf accuracy    <       0.00000008 Ry

     iteration #  5     ecut=    40.00 Ry     beta= 0.70
     Davidson diagonalization with overlap
     ethr =  1.88E-09,  avg # of iterations =  1.1

     negative rho (up, down):  1.718E-03 0.000E+00

     total cpu time spent up to now is        5.8 secs

     total energy              =     -46.68307356 Ry
     Harris-Foulkes estimate   =     -46.68307329 Ry
     estimated scf accuracy    <       0.00000021 Ry

     iteration #  6     ecut=    40.00 Ry     beta= 0.70
     Davidson diagonalization with overlap
     ethr =  1.88E-09,  avg # of iterations =  1.8

     negative rho (up, down):  1.720E-03 0.000E+00

     total cpu time spent up to now is        5.8 secs

     total energy              =     -46.68307358 Ry
     Harris-Foulkes estimate   =     -46.68307358 Ry
     estimated scf accuracy    <          1.4E-10 Ry

     iteration #  7     ecut=    40.00 Ry     beta= 0.70
     Davidson diagonalization with overlap
     ethr =  3.44E-12,  avg # of iterations =  4.7

     negative rho (up, down):  1.724E-03 0.000E+00

     total cpu time spent up to now is        5.9 secs

     End of self-consistent calculation

          k = 0.0000 0.0000 0.0000 (   411 PWs)   bands (ev):

    -3.6710  22.0980  22.0980  22.0980  23.0518  23.0518

          k =-0.1029 0.1029-0.1029 (   411 PWs)   bands (ev):

    -3.2135  17.4695  20.7790  20.7790  24.2850  24.8458

          k =-0.2058 0.2058-0.2058 (   410 PWs)   bands (ev):

    -1.8474  12.1898  19.7941  19.7941  24.1411  24.5558

          k =-0.3087 0.3087-0.3087 (   413 PWs)   bands (ev):

     0.4057   7.4998  19.4680  19.4680  22.7230  22.7230

          k = 0.4116-0.4116 0.4116 (   410 PWs)   bands (ev):

     3.2281   3.8564  19.4929  19.4929  21.9247  21.9247

          k =-0.0000 0.2058-0.0000 (   407 PWs)   bands (ev):

    -3.0611  18.8795  18.8795  20.5967  20.7859  25.2709

          k =-0.1029 0.3087-0.1029 (   410 PWs)   bands (ev):

    -1.9983  14.2346  17.6792  19.3849  21.2245  23.8895

          k =-0.2058 0.4116-0.2058 (   419 PWs)   bands (ev):

    -0.0409   9.3573  17.2604  17.8881  20.1872  26.1805

          k = 0.5145-0.3087 0.5145 (   415 PWs)   bands (ev):

     2.7631   5.1955  16.3795  17.6194  20.3934  24.5989

          k = 0.4116-0.2058 0.4116 (   414 PWs)   bands (ev):

     1.7431   6.4869  15.4853  18.7106  21.5955  23.7988

          k = 0.3087-0.1029 0.3087 (   411 PWs)   bands (ev):

    -0.7913  10.9073  15.3754  20.3704  23.5999  23.9438

          k = 0.2058-0.0000 0.2058 (   399 PWs)   bands (ev):

    -2.4532  15.7157  16.3188  21.9574  24.2427  25.3899

          k =-0.0000 0.4116-0.0000 (   415 PWs)   bands (ev):

    -1.2420  16.2208  16.2208  16.8809  17.7434  20.2447

          k =-0.1029 0.5145-0.1029 (   420 PWs)   bands (ev):

     0.4102  11.9815  14.3114  15.5478  18.0745  21.6591

          k = 0.6173-0.2058 0.6173 (   416 PWs)   bands (ev):

     2.9290   7.6290  12.2572  15.6726  18.3085  25.7307

          k = 0.5145-0.1029 0.5145 (   412 PWs)   bands (ev):

     3.9454   6.3329  11.0129  16.5869  19.3341  27.7928

          k = 0.4116-0.0000 0.4116 (   413 PWs)   bands (ev):

     1.1545  10.0568  11.0031  18.2506  21.1703  27.2627

          k =-0.0000 0.6173-0.0000 (   428 PWs)   bands (ev):

     1.7515  11.0962  14.6112  14.6112  15.9478  18.3431

          k = 0.7202-0.1029 0.7202 (   420 PWs)   bands (ev):

     3.9532   8.6824  10.9141  14.4748  16.8713  20.6000

          k = 0.6173-0.0000 0.6173 (   409 PWs)   bands (ev):

     6.6143   6.8397   7.7601  15.1386  17.7278  25.3136

          k = 0.0000-0.8231 0.0000 (   412 PWs)   bands (ev):

     5.4652   6.3488  14.0735  14.0735  15.3426  17.7674

          k =-0.2058 0.4116-0.0000 (   418 PWs)   bands (ev):

    -0.6402  12.9046  13.6788  17.7073  22.1412  23.1123

          k = 0.5145-0.3087 0.7202 (   415 PWs)   bands (ev):

     1.6002   8.6234  13.1858  15.4910  22.3866  24.6642

          k = 0.4116-0.2058 0.6173 (   414 PWs)   bands (ev):

     4.4273   4.9974  13.5764  14.2738  22.6062  23.8529

          k = 0.6173-0.2058 0.8231 (   418 PWs)   bands (ev):

     2.3430  11.1980  11.4291  12.3733  20.4806  21.6767

          k = 0.5145-0.1029 0.7202 (   412 PWs)   bands (ev):

     5.1070   7.4613   9.8662  12.1901  21.4293  25.5407

          k = 0.4116-0.0000 0.6173 (   411 PWs)   bands (ev):

     4.1028   8.3372   9.2985  13.4165  22.6070  26.6285

          k =-0.2058-0.8231 0.0000 (   418 PWs)   bands (ev):

     6.0398   6.9160  10.6274  11.5857  19.9166  21.1805

          k =-0.4116-0.8231 0.0000 (   412 PWs)   bands (ev):

     7.7634   7.7634   8.1545   9.3267  25.3926  26.1041

     the Fermi energy is    10.9940 ev

!    total energy              =     -46.68307358 Ry
     Harris-Foulkes estimate   =     -46.68307358 Ry
     estimated scf accuracy    <          4.2E-11 Ry

     total all-electron energy =       -46.683074 Ry

     The total energy is the sum of the following terms:

     one-electron contribution =       5.09665093 Ry
     hartree contribution      =       0.03054785 Ry
     xc contribution           =      -2.85705909 Ry
     ewald contribution        =     -10.06372981 Ry
     one-center paw contrib.   =     -38.88922579 Ry
     smearing contrib. (-TS)   =      -0.00025767 Ry

     convergence has been achieved in   7 iterations

     negative rho (up, down):  1.724E-03 0.000E+00

     Forces acting on atoms (cartesian axes, Ry/au):

     atom    1 type  1   force =     0.00000000    0.00000000    0.00000000

     Total force =     0.000000     Total SCF correction =     0.000000


     Computing stress (Cartesian axis) and pressure


     negative rho (up, down):  1.724E-03 0.000E+00
          total   stress  (Ry/bohr**3)                   (kbar)     P=    0.12
   0.00000084  -0.00000000   0.00000000          0.12     -0.00      0.00
  -0.00000000   0.00000084  -0.00000000         -0.00      0.12     -0.00
   0.00000000  -0.00000000   0.00000084          0.00     -0.00      0.12


     Writing output data file relax.save/
 
     init_run     :      0.29s CPU      0.31s WALL (       2 calls)
     electrons    :      3.33s CPU      3.74s WALL (       9 calls)
     update_pot   :      0.42s CPU      0.43s WALL (       7 calls)
     forces       :      0.22s CPU      0.22s WALL (       9 calls)
     stress       :      0.45s CPU      0.45s WALL (       9 calls)

     Called by init_run:
     wfcinit      :      0.03s CPU      0.03s WALL (       2 calls)
     potinit      :      0.05s CPU      0.06s WALL (       2 calls)
     hinit0       :      0.21s CPU      0.21s WALL (       2 calls)

     Called by electrons:
     c_bands      :      1.76s CPU      2.09s WALL (      58 calls)
     sum_band     :      0.24s CPU      0.29s WALL (      58 calls)
     v_of_rho     :      0.05s CPU      0.05s WALL (      64 calls)
     newd         :      0.02s CPU      0.02s WALL (      64 calls)
     PAW_pot      :      1.57s CPU      1.59s WALL (      71 calls)
     mix_rho      :      0.01s CPU      0.01s WALL (      58 calls)

     Called by c_bands:
     init_us_2    :      0.03s CPU      0.04s WALL (    4147 calls)
     cegterg      :      1.70s CPU      2.02s WALL (    1682 calls)

     Called by sum_band:
     sum_band:bec :      0.00s CPU      0.00s WALL (    1885 calls)
     addusdens    :      0.01s CPU      0.01s WALL (      58 calls)

     Called by *egterg:
     h_psi        :      1.12s CPU      1.33s WALL (    6770 calls)
     s_psi        :      0.02s CPU      0.02s WALL (    6770 calls)
     g_psi        :      0.01s CPU      0.01s WALL (    5030 calls)
     cdiaghg      :      0.36s CPU      0.42s WALL (    6422 calls)

     Called by h_psi:
     h_psi:pot    :      1.11s CPU      1.31s WALL (    6770 calls)
     h_psi:calbec :      0.05s CPU      0.06s WALL (    6770 calls)
     vloc_psi     :      1.01s CPU      1.19s WALL (    6770 calls)
     add_vuspsi   :      0.02s CPU      0.03s WALL (    6770 calls)

     General routines
     calbec       :      0.06s CPU      0.07s WALL (    9960 calls)
     fft          :      0.04s CPU      0.05s WALL (    1058 calls)
     ffts         :      0.00s CPU      0.00s WALL (     122 calls)
     fftw         :      1.04s CPU      1.24s WALL (   68526 calls)
     interpolate  :      0.01s CPU      0.01s WALL (      64 calls)
 
     Parallel routines
     fft_scatt_xy :      0.17s CPU      0.20s WALL (   69706 calls)
     fft_scatt_yz :      0.40s CPU      0.47s WALL (   69706 calls)
 
     PWSCF        :     5.42s CPU         5.95s WALL

 
   This run was terminated on:   9:26:54  16Jul2019            

=------------------------------------------------------------------------------=
   JOB DONE.
=------------------------------------------------------------------------------=
