===== VARIABLES =====
EXE_PATH = /scr/szymansk/2019-3/qe-bin/bin/pw.x
tpp = 4
Parallel keywords = -nimage 1
MPIRUN_EXE = orterun
PATH = /scr/szymansk/2019-3/mmshare-v4.7/lib/Linux-x86_64/openmpi/bin:/scr/szymansk/2019-3/internal/bin:/scr/szymansk/2019-3/mmshare-v4.7/bin/Linux-x86_64:/scr/szymansk/gaopaw_test/poly_simple/workdir_pp.1:.:/scr/szymansk/gaopaw_test/poly_simple:/scr/szymansk/gaopaw/scripts:/home/szymansk/bin:/scr/szymansk/dakota/bin:/scr/szymansk/atompaw-4.1.0.5/src/:/usr/lib64/qt-3.3/bin:/usr/local/bin:/usr/local/sbin:/usr/bin:/usr/sbin:/bin:/sbin
LD_LIBRARY_PATH = /scr/szymansk/2019-3/mmshare-v4.7/lib/Linux-x86_64/openmpi/lib:/scr/szymansk/2019-3/internal/lib/ssl:/scr/szymansk/2019-3/internal/lib:/scr/szymansk/2019-3/mmshare-v4.7/lib/Linux-x86_64:/scr/szymansk/2019-3/internal/lib/python3.6/site-packages:/scr/szymansk/dakota/bin:/software/lib/Linux-x86_64/ifort_2017.1.132/mkl/lib/intel64
===== END VARIABLES =====
Invoking: exe_cmd () 
{ 
    "$MPIRUN_EXE" -np $tpp "$EXE_PATH" -in $input_file "${P_KEYWORDS[@]}"
}

     Program PWSCF v.6.3MaX starts on  2Aug2019 at 15:18:10 

     This program is part of the open-source Quantum ESPRESSO suite
     for quantum simulation of materials; please cite
         "P. Giannozzi et al., J. Phys.:Condens. Matter 21 395502 (2009);
         "P. Giannozzi et al., J. Phys.:Condens. Matter 29 465901 (2017);
          URL http://www.quantum-espresso.org", 
     in publications or presentations arising from this work. More details at
     http://www.quantum-espresso.org/quote

     Parallel version (MPI), running on     4 processors

     MPI processes distributed on     1 nodes
     R & G space division:  proc/nbgrp/npool/nimage =       4
     Reading input from Be.FCC.relax.in

     Current dimensions of program PWSCF are:
     Max number of different atomic species (ntypx) = 10
     Max number of k-points (npk) =  40000
     Max angular momentum in pseudopotentials (lmaxx) =  3
               file Be.GGA-PBE-paw.UPF: wavefunction(s)  Xn Xn renormalized

     Subspace diagonalization in iterative solution of the eigenvalue problem:
     a serial algorithm will be used

 
     Parallelization info
     --------------------
     sticks:   dense  smooth     PW     G-vecs:    dense   smooth      PW
     Min          63      49     18                  659      457     102
     Max          64      50     19                  660      460     104
     Sum         253     199     73                 2637     1837     411
 


     bravais-lattice index     =            2
     lattice parameter (alat)  =       5.9830  a.u.
     unit-cell volume          =      53.5423 (a.u.)^3
     number of atoms/cell      =            1
     number of atomic types    =            1
     number of electrons       =         4.00
     number of Kohn-Sham states=            6
     kinetic-energy cutoff     =      40.0000  Ry
     charge density cutoff     =     200.0000  Ry
     convergence threshold     =      1.0E-08
     mixing beta               =       0.7000
     number of iterations used =            8  plain     mixing
     Exchange-correlation      = SLA PW PBX PBC ( 1  4  3  4 0 0)
     nstep                     =           50


     celldm(1)=   5.983000  celldm(2)=   0.000000  celldm(3)=   0.000000
     celldm(4)=   0.000000  celldm(5)=   0.000000  celldm(6)=   0.000000

     crystal axes: (cart. coord. in units of alat)
               a(1) = (  -0.500000   0.000000   0.500000 )  
               a(2) = (   0.000000   0.500000   0.500000 )  
               a(3) = (  -0.500000   0.500000   0.000000 )  

     reciprocal axes: (cart. coord. in units 2 pi/alat)
               b(1) = ( -1.000000 -1.000000  1.000000 )  
               b(2) = (  1.000000  1.000000  1.000000 )  
               b(3) = ( -1.000000  1.000000 -1.000000 )  


     PseudoPot. # 1 for Be read from file:
     ./Be.GGA-PBE-paw.UPF
     MD5 check sum: 83cfe0c5626eea0b7c51e4441ee5f2fb
     Pseudo is Projector augmented-wave + core cor, Zval =  4.0
     Generated using ATOMPAW code
     Shape of augmentation charge: SINC**2
     Using radial grid of 2342 points,  4 beta functions with: 
                l(1) =   0
                l(2) =   0
                l(3) =   1
                l(4) =   1
     Q(r) pseudized with 0 coefficients 


     atomic species   valence    mass     pseudopotential
        Be             4.00     9.01218     Be( 1.00)

     48 Sym. Ops., with inversion, found



   Cartesian axes

     site n.     atom                  positions (alat units)
         1           Be  tau(   1) = (   0.0000000   0.0000000   0.0000000  )

     number of k points=    29  Fermi-Dirac smearing, width (Ry)=  0.0020
                       cart. coord. in units 2pi/alat
        k(    1) = (   0.0000000   0.0000000   0.0000000), wk =   0.0039062
        k(    2) = (  -0.1250000   0.1250000  -0.1250000), wk =   0.0312500
        k(    3) = (  -0.2500000   0.2500000  -0.2500000), wk =   0.0312500
        k(    4) = (  -0.3750000   0.3750000  -0.3750000), wk =   0.0312500
        k(    5) = (   0.5000000  -0.5000000   0.5000000), wk =   0.0156250
        k(    6) = (   0.0000000   0.2500000   0.0000000), wk =   0.0234375
        k(    7) = (  -0.1250000   0.3750000  -0.1250000), wk =   0.0937500
        k(    8) = (  -0.2500000   0.5000000  -0.2500000), wk =   0.0937500
        k(    9) = (   0.6250000  -0.3750000   0.6250000), wk =   0.0937500
        k(   10) = (   0.5000000  -0.2500000   0.5000000), wk =   0.0937500
        k(   11) = (   0.3750000  -0.1250000   0.3750000), wk =   0.0937500
        k(   12) = (   0.2500000   0.0000000   0.2500000), wk =   0.0468750
        k(   13) = (   0.0000000   0.5000000   0.0000000), wk =   0.0234375
        k(   14) = (  -0.1250000   0.6250000  -0.1250000), wk =   0.0937500
        k(   15) = (   0.7500000  -0.2500000   0.7500000), wk =   0.0937500
        k(   16) = (   0.6250000  -0.1250000   0.6250000), wk =   0.0937500
        k(   17) = (   0.5000000   0.0000000   0.5000000), wk =   0.0468750
        k(   18) = (   0.0000000   0.7500000   0.0000000), wk =   0.0234375
        k(   19) = (   0.8750000  -0.1250000   0.8750000), wk =   0.0937500
        k(   20) = (   0.7500000   0.0000000   0.7500000), wk =   0.0468750
        k(   21) = (   0.0000000  -1.0000000   0.0000000), wk =   0.0117188
        k(   22) = (  -0.2500000   0.5000000   0.0000000), wk =   0.0937500
        k(   23) = (   0.6250000  -0.3750000   0.8750000), wk =   0.1875000
        k(   24) = (   0.5000000  -0.2500000   0.7500000), wk =   0.0937500
        k(   25) = (   0.7500000  -0.2500000   1.0000000), wk =   0.0937500
        k(   26) = (   0.6250000  -0.1250000   0.8750000), wk =   0.1875000
        k(   27) = (   0.5000000   0.0000000   0.7500000), wk =   0.0937500
        k(   28) = (  -0.2500000  -1.0000000   0.0000000), wk =   0.0468750
        k(   29) = (  -0.5000000  -1.0000000   0.0000000), wk =   0.0234375

     Dense  grid:     2637 G-vectors     FFT dimensions: (  20,  20,  20)

     Smooth grid:     1837 G-vectors     FFT dimensions: (  18,  18,  18)

     Estimated max dynamical RAM per process >       1.69 MB

     Estimated total dynamical RAM >       6.78 MB

     Initial potential from superposition of free atoms

     starting charge    3.99982, renormalised to    4.00000
     Starting wfcs are    8 randomized atomic wfcs
     Checking if some PAW data can be deallocated... 

     total cpu time spent up to now is        1.2 secs

     Self-consistent Calculation

     iteration #  1     ecut=    40.00 Ry     beta= 0.70
     Davidson diagonalization with overlap
     ethr =  1.00E-02,  avg # of iterations =  4.1

     Threshold (ethr) on eigenvalues was too large:
     Diagonalizing with lowered threshold

     Davidson diagonalization with overlap
     ethr =  1.85E-06,  avg # of iterations =  3.6

     total cpu time spent up to now is        1.3 secs

     total energy              =     -29.53072031 Ry
     Harris-Foulkes estimate   =     -29.52837029 Ry
     estimated scf accuracy    <       0.00006815 Ry

     iteration #  2     ecut=    40.00 Ry     beta= 0.70
     Davidson diagonalization with overlap
     ethr =  1.70E-06,  avg # of iterations =  2.3

     total cpu time spent up to now is        1.4 secs

     total energy              =     -29.53102338 Ry
     Harris-Foulkes estimate   =     -29.53079089 Ry
     estimated scf accuracy    <       0.00001095 Ry

     iteration #  3     ecut=    40.00 Ry     beta= 0.70
     Davidson diagonalization with overlap
     ethr =  2.74E-07,  avg # of iterations =  2.0

     total cpu time spent up to now is        1.5 secs

     total energy              =     -29.53103538 Ry
     Harris-Foulkes estimate   =     -29.53103035 Ry
     estimated scf accuracy    <       0.00000090 Ry

     iteration #  4     ecut=    40.00 Ry     beta= 0.70
     Davidson diagonalization with overlap
     ethr =  2.24E-08,  avg # of iterations =  2.0

     total cpu time spent up to now is        1.6 secs

     End of self-consistent calculation

          k = 0.0000 0.0000 0.0000 (   259 PWs)   bands (ev):

   -91.0257  -2.2165  28.9081  28.9081  28.9081  38.6740

          k =-0.1250 0.1250-0.1250 (   232 PWs)   bands (ev):

   -91.0153  -1.7018  25.2888  28.1661  28.1661  36.7982

          k =-0.2500 0.2500-0.2500 (   232 PWs)   bands (ev):

   -91.0086  -0.1633  18.7327  26.9752  26.9752  38.0003

          k =-0.3750 0.3750-0.3750 (   232 PWs)   bands (ev):

   -91.0015   2.2950  12.8286  26.2230  26.2230  36.8014

          k = 0.5000-0.5000 0.5000 (   228 PWs)   bands (ev):

   -90.9970   4.3363   9.5986  25.9952  25.9952  35.8148

          k = 0.0000 0.2500 0.0000 (   230 PWs)   bands (ev):

   -91.0140  -1.5284  26.1528  26.1528  28.8179  33.1483

          k =-0.1250 0.3750-0.1250 (   228 PWs)   bands (ev):

   -91.0082  -0.3224  21.1012  24.4964  28.0417  33.0253

          k =-0.2500 0.5000-0.2500 (   228 PWs)   bands (ev):

   -91.0006   1.8814  14.9163  23.8066  26.0855  31.8426

          k = 0.6250-0.3750 0.6250 (   233 PWs)   bands (ev):

   -90.9974   4.5649  10.2717  24.1299  24.1894  31.7174

          k = 0.5000-0.2500 0.5000 (   230 PWs)   bands (ev):

   -90.9974   3.7459  11.4470  22.9888  25.5245  32.9563

          k = 0.3750-0.1250 0.3750 (   223 PWs)   bands (ev):

   -91.0012   1.0444  16.7435  22.9237  27.4006  35.4792

          k = 0.2500 0.0000 0.2500 (   233 PWs)   bands (ev):

   -91.0117  -0.8411  22.6036  24.2862  28.8021  36.7336

          k = 0.0000 0.5000 0.0000 (   234 PWs)   bands (ev):

   -91.0067   0.5512  22.3999  22.3999  25.8383  28.5026

          k =-0.1250 0.6250-0.1250 (   226 PWs)   bands (ev):

   -90.9980   2.4487  17.7218  21.3594  22.3663  29.4219

          k = 0.7500-0.2500 0.7500 (   231 PWs)   bands (ev):

   -90.9946   5.2423  12.2382  19.8199  21.5152  30.2554

          k = 0.6250-0.1250 0.6250 (   230 PWs)   bands (ev):

   -90.9938   6.2877  10.4583  18.5716  22.8451  31.1741

          k = 0.5000 0.0000 0.5000 (   222 PWs)   bands (ev):

   -90.9947   3.3116  14.1427  19.1994  25.1301  32.8712

          k = 0.0000 0.7500 0.0000 (   226 PWs)   bands (ev):

   -90.9942   3.9536  18.1030  19.9224  19.9224  25.7028

          k = 0.8750-0.1250 0.8750 (   228 PWs)   bands (ev):

   -90.9917   6.2711  14.2588  17.1818  19.7002  27.9966

          k = 0.7500 0.0000 0.7500 (   224 PWs)   bands (ev):

   -90.9900   8.7607  10.0303  16.1666  20.7129  30.0941

          k = 0.0000-1.0000 0.0000 (   222 PWs)   bands (ev):

   -90.9894   6.9448  13.4233  19.0756  19.0756  24.7685

          k =-0.2500 0.5000 0.0000 (   223 PWs)   bands (ev):

   -91.0006   1.2380  18.4497  21.2253  25.9801  33.5042

          k = 0.6250-0.3750 0.8750 (   230 PWs)   bands (ev):

   -90.9966   3.7882  13.4366  20.1828  23.3895  32.5601

          k = 0.5000-0.2500 0.7500 (   232 PWs)   bands (ev):

   -90.9946   6.1359  10.0354  20.2541  22.1743  32.1976

          k = 0.7500-0.2500 1.0000 (   226 PWs)   bands (ev):

   -90.9932   4.6677  15.8226  17.3043  20.6562  31.5586

          k = 0.6250-0.1250 0.8750 (   227 PWs)   bands (ev):

   -90.9906   7.6910  11.3102  15.9373  20.3026  32.5819

          k = 0.5000 0.0000 0.7500 (   227 PWs)   bands (ev):

   -90.9915   6.7625  11.4617  16.5768  21.2972  33.0134

          k =-0.2500-1.0000 0.0000 (   226 PWs)   bands (ev):

   -90.9897   7.8535  13.0539  14.9352  19.4256  30.6877

          k =-0.5000-1.0000 0.0000 (   224 PWs)   bands (ev):

   -90.9885  10.5599  10.5599  12.7305  19.7203  34.9194

     the Fermi energy is     9.9565 ev

!    total energy              =     -29.53103554 Ry
     Harris-Foulkes estimate   =     -29.53103554 Ry
     estimated scf accuracy    <          2.8E-09 Ry

     total all-electron energy =       -29.531036 Ry

     The total energy is the sum of the following terms:

     one-electron contribution =     -17.58027064 Ry
     hartree contribution      =       2.60039180 Ry
     xc contribution           =      -4.14094522 Ry
     ewald contribution        =     -12.26103852 Ry
     one-center paw contrib.   =       1.85088734 Ry
     smearing contrib. (-TS)   =      -0.00006030 Ry

     convergence has been achieved in   4 iterations

     Forces acting on atoms (cartesian axes, Ry/au):

     atom    1 type  1   force =     0.00000000    0.00000000    0.00000000

     Total force =     0.000000     Total SCF correction =     0.000000


     Computing stress (Cartesian axis) and pressure

          total   stress  (Ry/bohr**3)                   (kbar)     P=  -27.54
  -0.00018718  -0.00000000   0.00000000        -27.54     -0.00      0.00
  -0.00000000  -0.00018718  -0.00000000         -0.00    -27.54     -0.00
   0.00000000  -0.00000000  -0.00018718          0.00     -0.00    -27.54


     BFGS Geometry Optimization

     number of scf cycles    =   1
     number of bfgs steps    =   0

     enthalpy new            =     -29.5310355441 Ry

     new trust radius        =       0.0068484023 bohr
     new conv_thr            =       0.0000000100 Ry

     new unit-cell volume =     52.79414 a.u.^3 (     7.82328 Ang^3 )
     density =      1.91289 g/cm^3

CELL_PARAMETERS (alat=  5.98300000)
  -0.497660189  -0.000000000   0.497660189
   0.000000000   0.497660189   0.497660189
  -0.497660189   0.497660189  -0.000000000

ATOMIC_POSITIONS (alat)
Be       0.000000000   0.000000000   0.000000000



     Writing output data file relax.save/
     NEW-OLD atomic charge density approx. for the potential
     extrapolated charge    3.94332, renormalised to    4.00000

     total cpu time spent up to now is        1.8 secs

     Self-consistent Calculation

     iteration #  1     ecut=    40.00 Ry     beta= 0.70
     Davidson diagonalization with overlap
     ethr =  1.00E-06,  avg # of iterations =  3.0

     Threshold (ethr) on eigenvalues was too large:
     Diagonalizing with lowered threshold

     Davidson diagonalization with overlap
     ethr =  6.11E-08,  avg # of iterations =  1.0

     total cpu time spent up to now is        1.9 secs

     total energy              =     -29.53112332 Ry
     Harris-Foulkes estimate   =     -29.60334677 Ry
     estimated scf accuracy    <       0.00000244 Ry

     iteration #  2     ecut=    40.00 Ry     beta= 0.70
     Davidson diagonalization with overlap
     ethr =  6.10E-08,  avg # of iterations =  2.9

     total cpu time spent up to now is        2.0 secs

     total energy              =     -29.53113621 Ry
     Harris-Foulkes estimate   =     -29.53117229 Ry
     estimated scf accuracy    <       0.00000109 Ry

     iteration #  3     ecut=    40.00 Ry     beta= 0.70
     Davidson diagonalization with overlap
     ethr =  2.71E-08,  avg # of iterations =  2.0

     total cpu time spent up to now is        2.1 secs

     total energy              =     -29.53112803 Ry
     Harris-Foulkes estimate   =     -29.53113756 Ry
     estimated scf accuracy    <       0.00000029 Ry

     iteration #  4     ecut=    40.00 Ry     beta= 0.70
     Davidson diagonalization with overlap
     ethr =  7.15E-09,  avg # of iterations =  2.0

     total cpu time spent up to now is        2.2 secs

     total energy              =     -29.53112443 Ry
     Harris-Foulkes estimate   =     -29.53112838 Ry
     estimated scf accuracy    <       0.00000009 Ry

     iteration #  5     ecut=    40.00 Ry     beta= 0.70
     Davidson diagonalization with overlap
     ethr =  2.13E-09,  avg # of iterations =  2.0

     total cpu time spent up to now is        2.3 secs

     End of self-consistent calculation

          k = 0.0000 0.0000 0.0000 (   259 PWs)   bands (ev):

   -90.8456  -2.1486  29.2770  29.2770  29.2770  39.0855

          k =-0.1256 0.1256-0.1256 (   232 PWs)   bands (ev):

   -90.8359  -1.6314  25.6091  28.5239  28.5239  37.2024

          k =-0.2512 0.2512-0.2512 (   232 PWs)   bands (ev):

   -90.8286  -0.0852  18.9851  27.3182  27.3182  38.4276

          k =-0.3768 0.3768-0.3768 (   232 PWs)   bands (ev):

   -90.8208   2.3841  13.0323  26.5588  26.5588  37.1929

          k = 0.5024-0.5024 0.5024 (   228 PWs)   bands (ev):

   -90.8162   4.4265   9.7886  26.3294  26.3294  36.1950

          k = 0.0000 0.2512 0.0000 (   230 PWs)   bands (ev):

   -90.8346  -1.4570  26.4825  26.4825  29.1968  33.5021

          k =-0.1256 0.3768-0.1256 (   228 PWs)   bands (ev):

   -90.8284  -0.2446  21.3735  24.8064  28.4129  33.3838

          k =-0.2512 0.5024-0.2512 (   228 PWs)   bands (ev):

   -90.8201   1.9706  15.1320  24.1095  26.4283  32.1904

          k = 0.6279-0.3768 0.6279 (   233 PWs)   bands (ev):

   -90.8163   4.6620  10.4579  24.4462  24.4980  32.0687

          k = 0.5024-0.2512 0.5024 (   230 PWs)   bands (ev):

   -90.8166   3.8423  11.6371  23.2919  25.8504  33.3191

          k = 0.3768-0.1256 0.3768 (   223 PWs)   bands (ev):

   -90.8212   1.1293  16.9721  23.2267  27.7514  35.8646

          k = 0.2512 0.0000 0.2512 (   233 PWs)   bands (ev):

   -90.8319  -0.7663  22.8852  24.6055  29.1720  37.1438

          k = 0.0000 0.5024 0.0000 (   234 PWs)   bands (ev):

   -90.8262   0.6342  22.6858  22.6858  26.1739  28.8121

          k =-0.1256 0.6279-0.1256 (   226 PWs)   bands (ev):

   -90.8174   2.5431  17.9547  21.6341  22.6585  29.7632

          k = 0.7535-0.2512 0.7535 (   231 PWs)   bands (ev):

   -90.8135   5.3523  12.4218  20.0917  21.7920  30.6252

          k = 0.6279-0.1256 0.6279 (   230 PWs)   bands (ev):

   -90.8126   6.4019  10.6263  18.8396  23.1372  31.5473

          k = 0.5024 0.0000 0.5024 (   222 PWs)   bands (ev):

   -90.8142   3.4104  14.3340  19.4790  25.4497  33.2474

          k = 0.0000 0.7535 0.0000 (   226 PWs)   bands (ev):

   -90.8133   4.0577  18.3447  20.1816  20.1816  25.9858

          k = 0.8791-0.1256 0.8791 (   228 PWs)   bands (ev):

   -90.8104   6.3895  14.4510  17.4292  19.9571  28.3222

          k = 0.7535 0.0000 0.7535 (   224 PWs)   bands (ev):

   -90.8088   8.8983  10.1766  16.4192  20.9808  30.4717

          k = 0.0000-1.0047 0.0000 (   222 PWs)   bands (ev):

   -90.8082   7.0644  13.6278  19.3258  19.3258  25.0426

          k =-0.2512 0.5024 0.0000 (   223 PWs)   bands (ev):

   -90.8204   1.3247  18.6860  21.5099  26.3203  33.8818

          k = 0.6279-0.3768 0.8791 (   230 PWs)   bands (ev):

   -90.8157   3.8895  13.6309  20.4480  23.7077  32.9305

          k = 0.5024-0.2512 0.7535 (   232 PWs)   bands (ev):

   -90.8134   6.2439  10.2120  20.5068  22.4924  32.5638

          k = 0.7535-0.2512 1.0047 (   226 PWs)   bands (ev):

   -90.8122   4.7764  16.0319  17.5231  20.9610  31.9095

          k = 0.6279-0.1256 0.8791 (   227 PWs)   bands (ev):

   -90.8094   7.8193  11.4762  16.1488  20.6130  32.9678

          k = 0.5024 0.0000 0.7535 (   227 PWs)   bands (ev):

   -90.8104   6.8850  11.6261  16.8071  21.6096  33.3964

          k =-0.2512-1.0047 0.0000 (   226 PWs)   bands (ev):

   -90.8085   7.9821  13.2378  15.1355  19.7176  31.0297

          k =-0.5024-1.0047 0.0000 (   224 PWs)   bands (ev):

   -90.8074  10.7153  10.7153  12.8990  20.0475  35.3262

     the Fermi energy is    10.1182 ev

!    total energy              =     -29.53112489 Ry
     Harris-Foulkes estimate   =     -29.53112489 Ry
     estimated scf accuracy    <          4.1E-11 Ry

     total all-electron energy =       -29.531125 Ry

     The total energy is the sum of the following terms:

     one-electron contribution =     -17.50309396 Ry
     hartree contribution      =       2.58552447 Ry
     xc contribution           =      -4.14707577 Ry
     ewald contribution        =     -12.31868530 Ry
     one-center paw contrib.   =       1.85226299 Ry
     smearing contrib. (-TS)   =      -0.00005732 Ry

     convergence has been achieved in   5 iterations

     Forces acting on atoms (cartesian axes, Ry/au):

     atom    1 type  1   force =     0.00000000    0.00000000    0.00000000

     Total force =     0.000000     Total SCF correction =     0.000000


     Computing stress (Cartesian axis) and pressure

          total   stress  (Ry/bohr**3)                   (kbar)     P=   -6.91
  -0.00004700  -0.00000000   0.00000000         -6.91     -0.00      0.00
  -0.00000000  -0.00004700  -0.00000000         -0.00     -6.91     -0.00
  -0.00000000  -0.00000000  -0.00004700         -0.00     -0.00     -6.91


     number of scf cycles    =   2
     number of bfgs steps    =   1

     enthalpy old            =     -29.5310355441 Ry
     enthalpy new            =     -29.5311248909 Ry

     CASE: enthalpy_new < enthalpy_old

     new trust radius        =       0.0022620030 bohr
     new conv_thr            =            1.0E-10 Ry

     new unit-cell volume =     52.54799 a.u.^3 (     7.78681 Ang^3 )
     density =      1.92185 g/cm^3

CELL_PARAMETERS (alat=  5.98300000)
  -0.496885543   0.000000000   0.496885543
   0.000000000   0.496885543   0.496885543
  -0.496885543   0.496885543  -0.000000000

ATOMIC_POSITIONS (alat)
Be       0.000000000   0.000000000   0.000000000



     Writing output data file relax.save/
     NEW-OLD atomic charge density approx. for the potential
     extrapolated charge    3.98126, renormalised to    4.00000

     total cpu time spent up to now is        2.5 secs

     Self-consistent Calculation

     iteration #  1     ecut=    40.00 Ry     beta= 0.70
     Davidson diagonalization with overlap
     ethr =  1.00E-06,  avg # of iterations =  2.0

     Threshold (ethr) on eigenvalues was too large:
     Diagonalizing with lowered threshold

     Davidson diagonalization with overlap
     ethr =  6.60E-09,  avg # of iterations =  1.0

     total cpu time spent up to now is        2.6 secs

     total energy              =     -29.53113169 Ry
     Harris-Foulkes estimate   =     -29.55471052 Ry
     estimated scf accuracy    <       0.00000026 Ry

     iteration #  2     ecut=    40.00 Ry     beta= 0.70
     Davidson diagonalization with overlap
     ethr =  6.59E-09,  avg # of iterations =  2.9

     total cpu time spent up to now is        2.6 secs

     total energy              =     -29.53113305 Ry
     Harris-Foulkes estimate   =     -29.53113701 Ry
     estimated scf accuracy    <       0.00000012 Ry

     iteration #  3     ecut=    40.00 Ry     beta= 0.70
     Davidson diagonalization with overlap
     ethr =  2.96E-09,  avg # of iterations =  2.0

     total cpu time spent up to now is        2.7 secs

     total energy              =     -29.53113209 Ry
     Harris-Foulkes estimate   =     -29.53113320 Ry
     estimated scf accuracy    <       0.00000003 Ry

     iteration #  4     ecut=    40.00 Ry     beta= 0.70
     Davidson diagonalization with overlap
     ethr =  7.61E-10,  avg # of iterations =  2.0

     total cpu time spent up to now is        2.8 secs

     total energy              =     -29.53113176 Ry
     Harris-Foulkes estimate   =     -29.53113214 Ry
     estimated scf accuracy    <          8.1E-09 Ry

     iteration #  5     ecut=    40.00 Ry     beta= 0.70
     Davidson diagonalization with overlap
     ethr =  2.02E-10,  avg # of iterations =  2.0

     total cpu time spent up to now is        2.8 secs

     End of self-consistent calculation

          k = 0.0000 0.0000 0.0000 (   259 PWs)   bands (ev):

   -90.7843  -2.1257  29.4004  29.4004  29.4004  39.2231

          k =-0.1258 0.1258-0.1258 (   232 PWs)   bands (ev):

   -90.7748  -1.6077  25.7163  28.6436  28.6436  37.3375

          k =-0.2516 0.2516-0.2516 (   232 PWs)   bands (ev):

   -90.7672  -0.0589  19.0696  27.4330  27.4330  38.5705

          k =-0.3774 0.3774-0.3774 (   232 PWs)   bands (ev):

   -90.7592   2.4140  13.1006  26.6711  26.6711  37.3238

          k = 0.5031-0.5031 0.5031 (   228 PWs)   bands (ev):

   -90.7546   4.4567   9.8523  26.4412  26.4412  36.3221

          k = 0.0000 0.2516 0.0000 (   230 PWs)   bands (ev):

   -90.7735  -1.4329  26.5928  26.5928  29.3236  33.6203

          k =-0.1258 0.3774-0.1258 (   228 PWs)   bands (ev):

   -90.7671  -0.2184  21.4646  24.9101  28.5371  33.5036

          k =-0.2516 0.5031-0.2516 (   228 PWs)   bands (ev):

   -90.7586   2.0005  15.2042  24.2109  26.5430  32.3068

          k = 0.6289-0.3774 0.6289 (   233 PWs)   bands (ev):

   -90.7546   4.6945  10.5203  24.5521  24.6013  32.1863

          k = 0.5031-0.2516 0.5031 (   230 PWs)   bands (ev):

   -90.7550   3.8747  11.7008  23.3933  25.9594  33.4405

          k = 0.3774-0.1258 0.3774 (   223 PWs)   bands (ev):

   -90.7598   1.1579  17.0486  23.3281  27.8688  35.9935

          k = 0.2516 0.0000 0.2516 (   233 PWs)   bands (ev):

   -90.7707  -0.7410  22.9793  24.7124  29.2959  37.2810

          k = 0.0000 0.5031 0.0000 (   234 PWs)   bands (ev):

   -90.7648   0.6621  22.7814  22.7814  26.2861  28.9156

          k =-0.1258 0.6289-0.1258 (   226 PWs)   bands (ev):

   -90.7558   2.5747  18.0325  21.7260  22.7563  29.8774

          k = 0.7547-0.2516 0.7547 (   231 PWs)   bands (ev):

   -90.7517   5.3892  12.4832  20.1827  21.8846  30.7491

          k = 0.6289-0.1258 0.6289 (   230 PWs)   bands (ev):

   -90.7509   6.4401  10.6825  18.9293  23.2349  31.6722

          k = 0.5031 0.0000 0.5031 (   222 PWs)   bands (ev):

   -90.7527   3.4436  14.3980  19.5726  25.5566  33.3733

          k = 0.0000 0.7547 0.0000 (   226 PWs)   bands (ev):

   -90.7516   4.0925  18.4256  20.2683  20.2683  26.0803

          k = 0.8805-0.1258 0.8805 (   228 PWs)   bands (ev):

   -90.7486   6.4292  14.5152  17.5120  20.0431  28.4311

          k = 0.7547 0.0000 0.7547 (   224 PWs)   bands (ev):

   -90.7471   8.9443  10.2255  16.5038  21.0705  30.5982

          k = 0.0000-1.0063 0.0000 (   222 PWs)   bands (ev):

   -90.7465   7.1045  13.6962  19.4096  19.4096  25.1343

          k =-0.2516 0.5031 0.0000 (   223 PWs)   bands (ev):

   -90.7590   1.3538  18.7650  21.6051  26.4342  34.0081

          k = 0.6289-0.3774 0.8805 (   230 PWs)   bands (ev):

   -90.7541   3.9234  13.6960  20.5367  23.8143  33.0543

          k = 0.5031-0.2516 0.7547 (   232 PWs)   bands (ev):

   -90.7517   6.2801  10.2712  20.5913  22.5990  32.6863

          k = 0.7547-0.2516 1.0063 (   226 PWs)   bands (ev):

   -90.7505   4.8128  16.1018  17.5962  21.0630  32.0268

          k = 0.6289-0.1258 0.8805 (   227 PWs)   bands (ev):

   -90.7477   7.8623  11.5317  16.2195  20.7171  33.0969

          k = 0.5031 0.0000 0.7547 (   227 PWs)   bands (ev):

   -90.7487   6.9261  11.6811  16.8840  21.7143  33.5245

          k =-0.2516-1.0063 0.0000 (   226 PWs)   bands (ev):

   -90.7467   8.0252  13.2993  15.2024  19.8154  31.1441

          k =-0.5031-1.0063 0.0000 (   224 PWs)   bands (ev):

   -90.7457  10.7673  10.7673  12.9553  20.1572  35.4623

     the Fermi energy is    10.1708 ev

!    total energy              =     -29.53113180 Ry
     Harris-Foulkes estimate   =     -29.53113180 Ry
     estimated scf accuracy    <          3.7E-12 Ry

     total all-electron energy =       -29.531132 Ry

     The total energy is the sum of the following terms:

     one-electron contribution =     -17.47734627 Ry
     hartree contribution      =       2.58057589 Ry
     xc contribution           =      -4.14911699 Ry
     ewald contribution        =     -12.33789016 Ry
     one-center paw contrib.   =       1.85270124 Ry
     smearing contrib. (-TS)   =      -0.00005550 Ry

     convergence has been achieved in   5 iterations

     Forces acting on atoms (cartesian axes, Ry/au):

     atom    1 type  1   force =     0.00000000    0.00000000    0.00000000

     Total force =     0.000000     Total SCF correction =     0.000000


     Computing stress (Cartesian axis) and pressure

          total   stress  (Ry/bohr**3)                   (kbar)     P=   -0.64
  -0.00000432   0.00000000   0.00000000         -0.64      0.00      0.00
   0.00000000  -0.00000432  -0.00000000          0.00     -0.64     -0.00
   0.00000000   0.00000000  -0.00000432          0.00      0.00     -0.64


     number of scf cycles    =   3
     number of bfgs steps    =   2

     enthalpy old            =     -29.5311248909 Ry
     enthalpy new            =     -29.5311317991 Ry

     CASE: enthalpy_new < enthalpy_old

     new trust radius        =       0.0002282134 bohr
     new conv_thr            =            1.0E-10 Ry

     new unit-cell volume =     52.52318 a.u.^3 (     7.78313 Ang^3 )
     density =      1.92276 g/cm^3

CELL_PARAMETERS (alat=  5.98300000)
  -0.496807328   0.000000000   0.496807328
   0.000000000   0.496807328   0.496807328
  -0.496807328   0.496807328  -0.000000000

ATOMIC_POSITIONS (alat)
Be       0.000000000   0.000000000   0.000000000



     Writing output data file relax.save/
     NEW-OLD atomic charge density approx. for the potential
     extrapolated charge    3.99811, renormalised to    4.00000

     total cpu time spent up to now is        3.0 secs

     Self-consistent Calculation

     iteration #  1     ecut=    40.00 Ry     beta= 0.70
     Davidson diagonalization with overlap
     ethr =  1.00E-06,  avg # of iterations =  2.0

     Threshold (ethr) on eigenvalues was too large:
     Diagonalizing with lowered threshold

     Davidson diagonalization with overlap
     ethr =  6.78E-11,  avg # of iterations =  1.1

     total cpu time spent up to now is        3.0 secs

     total energy              =     -29.53113186 Ry
     Harris-Foulkes estimate   =     -29.53349840 Ry
     estimated scf accuracy    <          2.7E-09 Ry

     iteration #  2     ecut=    40.00 Ry     beta= 0.70
     Davidson diagonalization with overlap
     ethr =  6.77E-11,  avg # of iterations =  2.9

     total cpu time spent up to now is        3.1 secs

     total energy              =     -29.53113188 Ry
     Harris-Foulkes estimate   =     -29.53113192 Ry
     estimated scf accuracy    <          1.2E-09 Ry

     iteration #  3     ecut=    40.00 Ry     beta= 0.70
     Davidson diagonalization with overlap
     ethr =  3.00E-11,  avg # of iterations =  2.0

     total cpu time spent up to now is        3.2 secs

     total energy              =     -29.53113187 Ry
     Harris-Foulkes estimate   =     -29.53113188 Ry
     estimated scf accuracy    <          3.0E-10 Ry

     iteration #  4     ecut=    40.00 Ry     beta= 0.70
     Davidson diagonalization with overlap
     ethr =  7.58E-12,  avg # of iterations =  2.0

     total cpu time spent up to now is        3.2 secs

     End of self-consistent calculation

          k = 0.0000 0.0000 0.0000 (   259 PWs)   bands (ev):

   -90.7767  -2.1233  29.4130  29.4130  29.4130  39.2370

          k =-0.1258 0.1258-0.1258 (   232 PWs)   bands (ev):

   -90.7673  -1.6052  25.7272  28.6558  28.6558  37.3512

          k =-0.2516 0.2516-0.2516 (   232 PWs)   bands (ev):

   -90.7597  -0.0562  19.0782  27.4447  27.4447  38.5850

          k =-0.3774 0.3774-0.3774 (   232 PWs)   bands (ev):

   -90.7517   2.4171  13.1076  26.6826  26.6826  37.3371

          k = 0.5032-0.5032 0.5032 (   228 PWs)   bands (ev):

   -90.7470   4.4598   9.8588  26.4526  26.4526  36.3350

          k = 0.0000 0.2516 0.0000 (   230 PWs)   bands (ev):

   -90.7660  -1.4304  26.6040  26.6040  29.3365  33.6323

          k =-0.1258 0.3774-0.1258 (   228 PWs)   bands (ev):

   -90.7595  -0.2157  21.4738  24.9206  28.5498  33.5158

          k =-0.2516 0.5032-0.2516 (   228 PWs)   bands (ev):

   -90.7511   2.0036  15.2116  24.2212  26.5547  32.3186

          k = 0.6290-0.3774 0.6290 (   233 PWs)   bands (ev):

   -90.7471   4.6978  10.5267  24.5629  24.6118  32.1982

          k = 0.5032-0.2516 0.5032 (   230 PWs)   bands (ev):

   -90.7474   3.8780  11.7073  23.4036  25.9705  33.4528

          k = 0.3774-0.1258 0.3774 (   223 PWs)   bands (ev):

   -90.7523   1.1608  17.0564  23.3385  27.8808  36.0065

          k = 0.2516 0.0000 0.2516 (   233 PWs)   bands (ev):

   -90.7631  -0.7384  22.9889  24.7233  29.3084  37.2949

          k = 0.0000 0.5032 0.0000 (   234 PWs)   bands (ev):

   -90.7572   0.6650  22.7911  22.7911  26.2975  28.9261

          k =-0.1258 0.6290-0.1258 (   226 PWs)   bands (ev):

   -90.7483   2.5780  18.0405  21.7354  22.7662  29.8890

          k = 0.7548-0.2516 0.7548 (   231 PWs)   bands (ev):

   -90.7442   5.3929  12.4894  20.1919  21.8940  30.7617

          k = 0.6290-0.1258 0.6290 (   230 PWs)   bands (ev):

   -90.7433   6.4440  10.6883  18.9385  23.2448  31.6850

          k = 0.5032 0.0000 0.5032 (   222 PWs)   bands (ev):

   -90.7452   3.4470  14.4045  19.5822  25.5675  33.3861

          k = 0.0000 0.7548 0.0000 (   226 PWs)   bands (ev):

   -90.7441   4.0961  18.4338  20.2771  20.2771  26.0899

          k = 0.8806-0.1258 0.8806 (   228 PWs)   bands (ev):

   -90.7410   6.4332  14.5218  17.5204  20.0518  28.4422

          k = 0.7548 0.0000 0.7548 (   224 PWs)   bands (ev):

   -90.7395   8.9490  10.2305  16.5124  21.0796  30.6110

          k = 0.0000-1.0064 0.0000 (   222 PWs)   bands (ev):

   -90.7389   7.1085  13.7032  19.4181  19.4181  25.1436

          k =-0.2516 0.5032 0.0000 (   223 PWs)   bands (ev):

   -90.7515   1.3568  18.7731  21.6148  26.4457  34.0209

          k = 0.6290-0.3774 0.8806 (   230 PWs)   bands (ev):

   -90.7465   3.9269  13.7026  20.5457  23.8252  33.0669

          k = 0.5032-0.2516 0.7548 (   232 PWs)   bands (ev):

   -90.7441   6.2838  10.2772  20.5999  22.6099  32.6988

          k = 0.7548-0.2516 1.0064 (   226 PWs)   bands (ev):

   -90.7429   4.8165  16.1090  17.6037  21.0734  32.0387

          k = 0.6290-0.1258 0.8806 (   227 PWs)   bands (ev):

   -90.7401   7.8666  11.5374  16.2267  20.7277  33.1100

          k = 0.5032 0.0000 0.7548 (   227 PWs)   bands (ev):

   -90.7411   6.9302  11.6867  16.8919  21.7250  33.5375

          k =-0.2516-1.0064 0.0000 (   226 PWs)   bands (ev):

   -90.7391   8.0295  13.3056  15.2092  19.8254  31.1557

          k =-0.5032-1.0064 0.0000 (   224 PWs)   bands (ev):

   -90.7381  10.7726  10.7726  12.9610  20.1684  35.4761

     the Fermi energy is    10.1761 ev

!    total energy              =     -29.53113186 Ry
     Harris-Foulkes estimate   =     -29.53113187 Ry
     estimated scf accuracy    <          7.6E-11 Ry

     total all-electron energy =       -29.531132 Ry

     The total energy is the sum of the following terms:

     one-electron contribution =     -17.47471841 Ry
     hartree contribution      =       2.58006761 Ry
     xc contribution           =      -4.14932020 Ry
     ewald contribution        =     -12.33983258 Ry
     one-center paw contrib.   =       1.85272701 Ry
     smearing contrib. (-TS)   =      -0.00005529 Ry

     convergence has been achieved in   4 iterations

     Forces acting on atoms (cartesian axes, Ry/au):

     atom    1 type  1   force =     0.00000000    0.00000000    0.00000000

     Total force =     0.000000     Total SCF correction =     0.000000


     Computing stress (Cartesian axis) and pressure

          total   stress  (Ry/bohr**3)                   (kbar)     P=   -0.71
  -0.00000482   0.00000000   0.00000000         -0.71      0.00      0.00
   0.00000000  -0.00000482  -0.00000000          0.00     -0.71     -0.00
   0.00000000   0.00000000  -0.00000482          0.00      0.00     -0.71


     number of scf cycles    =   4
     number of bfgs steps    =   3

     enthalpy old            =     -29.5311317991 Ry
     enthalpy new            =     -29.5311318629 Ry

     CASE: enthalpy_new < enthalpy_old


     WARNING: bfgs curvature condition failed, Theta= 0.717
     uphill step: resetting bfgs history

     new trust radius        =       0.0001747830 bohr
     new conv_thr            =            1.0E-10 Ry

     new unit-cell volume =     52.50418 a.u.^3 (     7.78032 Ang^3 )
     density =      1.92345 g/cm^3

CELL_PARAMETERS (alat=  5.98300000)
  -0.496747421   0.000000000   0.496747421
   0.000000000   0.496747421   0.496747421
  -0.496747421   0.496747421  -0.000000000

ATOMIC_POSITIONS (alat)
Be       0.000000000   0.000000000   0.000000000



     Writing output data file relax.save/
     NEW-OLD atomic charge density approx. for the potential
     extrapolated charge    3.99855, renormalised to    4.00000

     total cpu time spent up to now is        3.4 secs

     Self-consistent Calculation

     iteration #  1     ecut=    40.00 Ry     beta= 0.70
     Davidson diagonalization with overlap
     ethr =  1.00E-06,  avg # of iterations =  2.0

     Threshold (ethr) on eigenvalues was too large:
     Diagonalizing with lowered threshold

     Davidson diagonalization with overlap
     ethr =  4.06E-11,  avg # of iterations =  1.1

     total cpu time spent up to now is        3.4 secs

     total energy              =     -29.53113183 Ry
     Harris-Foulkes estimate   =     -29.53294401 Ry
     estimated scf accuracy    <          1.6E-09 Ry

     iteration #  2     ecut=    40.00 Ry     beta= 0.70
     Davidson diagonalization with overlap
     ethr =  4.05E-11,  avg # of iterations =  2.9

     total cpu time spent up to now is        3.5 secs

     total energy              =     -29.53113184 Ry
     Harris-Foulkes estimate   =     -29.53113187 Ry
     estimated scf accuracy    <          7.0E-10 Ry

     iteration #  3     ecut=    40.00 Ry     beta= 0.70
     Davidson diagonalization with overlap
     ethr =  1.74E-11,  avg # of iterations =  2.0

     total cpu time spent up to now is        3.6 secs

     total energy              =     -29.53113184 Ry
     Harris-Foulkes estimate   =     -29.53113184 Ry
     estimated scf accuracy    <          1.8E-10 Ry

     iteration #  4     ecut=    40.00 Ry     beta= 0.70
     Davidson diagonalization with overlap
     ethr =  4.45E-12,  avg # of iterations =  2.0

     total cpu time spent up to now is        3.7 secs

     End of self-consistent calculation

          k = 0.0000 0.0000 0.0000 (   259 PWs)   bands (ev):

   -90.7723  -2.1216  29.4225  29.4225  29.4225  39.2477

          k =-0.1258 0.1258-0.1258 (   232 PWs)   bands (ev):

   -90.7629  -1.6033  25.7355  28.6650  28.6650  37.3617

          k =-0.2516 0.2516-0.2516 (   232 PWs)   bands (ev):

   -90.7553  -0.0541  19.0848  27.4536  27.4536  38.5960

          k =-0.3775 0.3775-0.3775 (   232 PWs)   bands (ev):

   -90.7472   2.4194  13.1129  26.6913  26.6913  37.3472

          k = 0.5033-0.5033 0.5033 (   228 PWs)   bands (ev):

   -90.7426   4.4621   9.8637  26.4612  26.4612  36.3449

          k = 0.0000 0.2516 0.0000 (   230 PWs)   bands (ev):

   -90.7615  -1.4286  26.6125  26.6125  29.3463  33.6415

          k =-0.1258 0.3775-0.1258 (   228 PWs)   bands (ev):

   -90.7551  -0.2137  21.4809  24.9287  28.5594  33.5251

          k =-0.2516 0.5033-0.2516 (   228 PWs)   bands (ev):

   -90.7466   2.0059  15.2172  24.2290  26.5636  32.3276

          k = 0.6291-0.3775 0.6291 (   233 PWs)   bands (ev):

   -90.7426   4.7003  10.5315  24.5711  24.6198  32.2073

          k = 0.5033-0.2516 0.5033 (   230 PWs)   bands (ev):

   -90.7429   3.8805  11.7122  23.4115  25.9789  33.4622

          k = 0.3775-0.1258 0.3775 (   223 PWs)   bands (ev):

   -90.7478   1.1630  17.0623  23.3463  27.8899  36.0165

          k = 0.2516 0.0000 0.2516 (   233 PWs)   bands (ev):

   -90.7587  -0.7365  22.9962  24.7315  29.3180  37.3056

          k = 0.0000 0.5033 0.0000 (   234 PWs)   bands (ev):

   -90.7527   0.6672  22.7985  22.7985  26.3062  28.9341

          k =-0.1258 0.6291-0.1258 (   226 PWs)   bands (ev):

   -90.7438   2.5804  18.0465  21.7425  22.7738  29.8979

          k = 0.7549-0.2516 0.7549 (   231 PWs)   bands (ev):

   -90.7397   5.3958  12.4942  20.1990  21.9012  30.7713

          k = 0.6291-0.1258 0.6291 (   230 PWs)   bands (ev):

   -90.7388   6.4470  10.6926  18.9454  23.2524  31.6946

          k = 0.5033 0.0000 0.5033 (   222 PWs)   bands (ev):

   -90.7407   3.4496  14.4095  19.5894  25.5758  33.3958

          k = 0.0000 0.7549 0.0000 (   226 PWs)   bands (ev):

   -90.7396   4.0988  18.4401  20.2839  20.2839  26.0973

          k = 0.8807-0.1258 0.8807 (   228 PWs)   bands (ev):

   -90.7365   6.4363  14.5268  17.5268  20.0585  28.4506

          k = 0.7549 0.0000 0.7549 (   224 PWs)   bands (ev):

   -90.7350   8.9526  10.2343  16.5190  21.0866  30.6208

          k = 0.0000-1.0065 0.0000 (   222 PWs)   bands (ev):

   -90.7344   7.1117  13.7085  19.4246  19.4246  25.1507

          k =-0.2516 0.5033 0.0000 (   223 PWs)   bands (ev):

   -90.7471   1.3591  18.7792  21.6222  26.4546  34.0307

          k = 0.6291-0.3775 0.8807 (   230 PWs)   bands (ev):

   -90.7420   3.9296  13.7076  20.5526  23.8334  33.0765

          k = 0.5033-0.2516 0.7549 (   232 PWs)   bands (ev):

   -90.7396   6.2866  10.2818  20.6064  22.6181  32.7083

          k = 0.7549-0.2516 1.0065 (   226 PWs)   bands (ev):

   -90.7385   4.8194  16.1144  17.6093  21.0813  32.0478

          k = 0.6291-0.1258 0.8807 (   227 PWs)   bands (ev):

   -90.7356   7.8700  11.5417  16.2322  20.7358  33.1200

          k = 0.5033 0.0000 0.7549 (   227 PWs)   bands (ev):

   -90.7367   6.9334  11.6910  16.8978  21.7331  33.5474

          k =-0.2516-1.0065 0.0000 (   226 PWs)   bands (ev):

   -90.7346   8.0329  13.3104  15.2144  19.8330  31.1645

          k =-0.5033-1.0065 0.0000 (   224 PWs)   bands (ev):

   -90.7336  10.7767  10.7767  12.9654  20.1769  35.4866

     the Fermi energy is    10.1801 ev

!    total energy              =     -29.53113183 Ry
     Harris-Foulkes estimate   =     -29.53113184 Ry
     estimated scf accuracy    <          5.2E-11 Ry

     total all-electron energy =       -29.531132 Ry

     The total energy is the sum of the following terms:

     one-electron contribution =     -17.47272844 Ry
     hartree contribution      =       2.57968643 Ry
     xc contribution           =      -4.14947918 Ry
     ewald contribution        =     -12.34132076 Ry
     one-center paw contrib.   =       1.85276526 Ry
     smearing contrib. (-TS)   =      -0.00005514 Ry

     convergence has been achieved in   4 iterations

     Forces acting on atoms (cartesian axes, Ry/au):

     atom    1 type  1   force =     0.00000000    0.00000000    0.00000000

     Total force =     0.000000     Total SCF correction =     0.000000


     Computing stress (Cartesian axis) and pressure

          total   stress  (Ry/bohr**3)                   (kbar)     P=   -0.06
  -0.00000040   0.00000000   0.00000000         -0.06      0.00      0.00
   0.00000000  -0.00000040  -0.00000000          0.00     -0.06     -0.00
   0.00000000  -0.00000000  -0.00000040          0.00     -0.00     -0.06


     bfgs converged in   5 scf cycles and   4 bfgs steps
     (criteria: energy <  1.0E-04 Ry, force <  1.0E-03Ry/Bohr, cell <  5.0E-01kbar)

     End of BFGS Geometry Optimization

     Final enthalpy =     -29.5311318335 Ry
Begin final coordinates
     new unit-cell volume =     52.50418 a.u.^3 (     7.78032 Ang^3 )
     density =      1.92345 g/cm^3

CELL_PARAMETERS (alat=  5.98300000)
  -0.496747421   0.000000000   0.496747421
   0.000000000   0.496747421   0.496747421
  -0.496747421   0.496747421  -0.000000000

ATOMIC_POSITIONS (alat)
Be       0.000000000   0.000000000   0.000000000
End final coordinates



     Writing output data file relax.save/

     A final scf calculation at the relaxed structure.
     The G-vectors are recalculated for the final unit cell
     Results may differ from those at the preceding step.
 
     Parallelization info
     --------------------
     sticks:   dense  smooth     PW     G-vecs:    dense   smooth      PW
     Min          60      49     18                  610      451     102
     Max          61      50     19                  613      453     104
     Sum         241     199     73                 2445     1807     411
 


     bravais-lattice index     =            2
     lattice parameter (alat)  =       5.9830  a.u.
     unit-cell volume          =      52.5042 (a.u.)^3
     number of atoms/cell      =            1
     number of atomic types    =            1
     number of electrons       =         4.00
     number of Kohn-Sham states=            6
     kinetic-energy cutoff     =      40.0000  Ry
     charge density cutoff     =     200.0000  Ry
     convergence threshold     =      1.0E-10
     mixing beta               =       0.7000
     number of iterations used =            8  plain     mixing
     Exchange-correlation      = SLA PW PBX PBC ( 1  4  3  4 0 0)

     celldm(1)=   5.983000  celldm(2)=   0.000000  celldm(3)=   0.000000
     celldm(4)=   0.000000  celldm(5)=   0.000000  celldm(6)=   0.000000

     crystal axes: (cart. coord. in units of alat)
               a(1) = (  -0.496747   0.000000   0.496747 )  
               a(2) = (   0.000000   0.496747   0.496747 )  
               a(3) = (  -0.496747   0.496747  -0.000000 )  

     reciprocal axes: (cart. coord. in units 2 pi/alat)
               b(1) = ( -1.006548 -1.006548  1.006548 )  
               b(2) = (  1.006548  1.006548  1.006548 )  
               b(3) = ( -1.006548  1.006548 -1.006548 )  


     PseudoPot. # 1 for Be read from file:
     ./Be.GGA-PBE-paw.UPF
     MD5 check sum: 83cfe0c5626eea0b7c51e4441ee5f2fb
     Pseudo is Projector augmented-wave + core cor, Zval =  4.0
     Generated using ATOMPAW code
     Shape of augmentation charge: SINC**2
     Using radial grid of 2342 points,  4 beta functions with: 
                l(1) =   0
                l(2) =   0
                l(3) =   1
                l(4) =   1
     Q(r) pseudized with 0 coefficients 


     atomic species   valence    mass     pseudopotential
        Be             4.00     9.01218     Be( 1.00)

     48 Sym. Ops., with inversion, found



   Cartesian axes

     site n.     atom                  positions (alat units)
         1           Be  tau(   1) = (   0.0000000   0.0000000   0.0000000  )

     number of k points=    29  Fermi-Dirac smearing, width (Ry)=  0.0020
                       cart. coord. in units 2pi/alat
        k(    1) = (   0.0000000   0.0000000   0.0000000), wk =   0.0039062
        k(    2) = (  -0.1258185   0.1258185  -0.1258185), wk =   0.0312500
        k(    3) = (  -0.2516369   0.2516369  -0.2516369), wk =   0.0312500
        k(    4) = (  -0.3774554   0.3774554  -0.3774554), wk =   0.0312500
        k(    5) = (   0.5032739  -0.5032739   0.5032739), wk =   0.0156250
        k(    6) = (   0.0000000   0.2516369   0.0000000), wk =   0.0234375
        k(    7) = (  -0.1258185   0.3774554  -0.1258185), wk =   0.0937500
        k(    8) = (  -0.2516369   0.5032739  -0.2516369), wk =   0.0937500
        k(    9) = (   0.6290923  -0.3774554   0.6290923), wk =   0.0937500
        k(   10) = (   0.5032739  -0.2516369   0.5032739), wk =   0.0937500
        k(   11) = (   0.3774554  -0.1258185   0.3774554), wk =   0.0937500
        k(   12) = (   0.2516369   0.0000000   0.2516369), wk =   0.0468750
        k(   13) = (   0.0000000   0.5032739   0.0000000), wk =   0.0234375
        k(   14) = (  -0.1258185   0.6290923  -0.1258185), wk =   0.0937500
        k(   15) = (   0.7549108  -0.2516369   0.7549108), wk =   0.0937500
        k(   16) = (   0.6290923  -0.1258185   0.6290923), wk =   0.0937500
        k(   17) = (   0.5032739   0.0000000   0.5032739), wk =   0.0468750
        k(   18) = (   0.0000000   0.7549108   0.0000000), wk =   0.0234375
        k(   19) = (   0.8807293  -0.1258185   0.8807293), wk =   0.0937500
        k(   20) = (   0.7549108   0.0000000   0.7549108), wk =   0.0468750
        k(   21) = (   0.0000000  -1.0065478   0.0000000), wk =   0.0117188
        k(   22) = (  -0.2516369   0.5032739   0.0000000), wk =   0.0937500
        k(   23) = (   0.6290923  -0.3774554   0.8807293), wk =   0.1875000
        k(   24) = (   0.5032739  -0.2516369   0.7549108), wk =   0.0937500
        k(   25) = (   0.7549108  -0.2516369   1.0065478), wk =   0.0937500
        k(   26) = (   0.6290923  -0.1258185   0.8807293), wk =   0.1875000
        k(   27) = (   0.5032739   0.0000000   0.7549108), wk =   0.0937500
        k(   28) = (  -0.2516369  -1.0065478   0.0000000), wk =   0.0468750
        k(   29) = (  -0.5032739  -1.0065478   0.0000000), wk =   0.0234375

     Dense  grid:     2445 G-vectors     FFT dimensions: (  20,  20,  20)

     Smooth grid:     1807 G-vectors     FFT dimensions: (  18,  18,  18)

     Estimated max dynamical RAM per process >       1.64 MB

     Estimated total dynamical RAM >       6.57 MB

     Initial potential from superposition of free atoms

     starting charge    3.99982, renormalised to    4.00000
     Starting wfcs are    8 randomized atomic wfcs
     Checking if some PAW data can be deallocated... 

     total cpu time spent up to now is        4.0 secs

     Self-consistent Calculation

     iteration #  1     ecut=    40.00 Ry     beta= 0.70
     Davidson diagonalization with overlap
     ethr =  1.00E-06,  avg # of iterations =  8.1

     total cpu time spent up to now is        4.1 secs

     total energy              =     -29.53056296 Ry
     Harris-Foulkes estimate   =     -29.52787077 Ry
     estimated scf accuracy    <       0.00006437 Ry

     iteration #  2     ecut=    40.00 Ry     beta= 0.70
     Davidson diagonalization with overlap
     ethr =  1.61E-06,  avg # of iterations =  2.6

     total cpu time spent up to now is        4.1 secs

     total energy              =     -29.53090573 Ry
     Harris-Foulkes estimate   =     -29.53065047 Ry
     estimated scf accuracy    <       0.00001139 Ry

     iteration #  3     ecut=    40.00 Ry     beta= 0.70
     Davidson diagonalization with overlap
     ethr =  2.85E-07,  avg # of iterations =  2.0

     total cpu time spent up to now is        4.2 secs

     total energy              =     -29.53092114 Ry
     Harris-Foulkes estimate   =     -29.53091323 Ry
     estimated scf accuracy    <       0.00000115 Ry

     iteration #  4     ecut=    40.00 Ry     beta= 0.70
     Davidson diagonalization with overlap
     ethr =  2.88E-08,  avg # of iterations =  2.0

     total cpu time spent up to now is        4.2 secs

     total energy              =     -29.53092141 Ry
     Harris-Foulkes estimate   =     -29.53092140 Ry
     estimated scf accuracy    <          3.2E-09 Ry

     iteration #  5     ecut=    40.00 Ry     beta= 0.70
     Davidson diagonalization with overlap
     ethr =  7.95E-11,  avg # of iterations =  2.0

     total cpu time spent up to now is        4.3 secs

     End of self-consistent calculation

          k = 0.0000 0.0000 0.0000 (   229 PWs)   bands (ev):

   -90.7673  -2.1211  29.4233  29.4233  29.4233  39.2496

          k =-0.1258 0.1258-0.1258 (   232 PWs)   bands (ev):

   -90.7676  -1.6029  25.7358  28.6652  28.6652  37.3620

          k =-0.2516 0.2516-0.2516 (   223 PWs)   bands (ev):

   -90.7573  -0.0537  19.0853  27.4539  27.4539  38.5969

          k =-0.3775 0.3775-0.3775 (   226 PWs)   bands (ev):

   -90.7501   2.4198  13.1134  26.6916  26.6916  37.3483

          k = 0.5033-0.5033 0.5033 (   228 PWs)   bands (ev):

   -90.7472   4.4626   9.8642  26.4614  26.4614  36.3456

          k = 0.0000 0.2516 0.0000 (   226 PWs)   bands (ev):

   -90.7650  -1.4281  26.6129  26.6129  29.3465  33.6420

          k =-0.1258 0.3775-0.1258 (   222 PWs)   bands (ev):

   -90.7579  -0.2133  21.4814  24.9291  28.5597  33.5256

          k =-0.2516 0.5033-0.2516 (   228 PWs)   bands (ev):

   -90.7513   2.0064  15.2176  24.2294  26.5638  32.3280

          k = 0.6291-0.3775 0.6291 (   226 PWs)   bands (ev):

   -90.7451   4.7008  10.5320  24.5715  24.6201  32.2079

          k = 0.5033-0.2516 0.5033 (   228 PWs)   bands (ev):

   -90.7470   3.8809  11.7127  23.4119  25.9792  33.4626

          k = 0.3775-0.1258 0.3775 (   223 PWs)   bands (ev):

   -90.7525   1.1635  17.0627  23.3467  27.8900  36.0167

          k = 0.2516 0.0000 0.2516 (   216 PWs)   bands (ev):

   -90.7582  -0.7360  22.9968  24.7322  29.3188  37.3059

          k = 0.0000 0.5033 0.0000 (   218 PWs)   bands (ev):

   -90.7528   0.6676  22.7992  22.7992  26.3067  28.9348

          k =-0.1258 0.6291-0.1258 (   220 PWs)   bands (ev):

   -90.7466   2.5809  18.0470  21.7429  22.7743  29.8986

          k = 0.7549-0.2516 0.7549 (   226 PWs)   bands (ev):

   -90.7429   5.3962  12.4947  20.1995  21.9016  30.7717

          k = 0.6291-0.1258 0.6291 (   229 PWs)   bands (ev):

   -90.7432   6.4474  10.6931  18.9459  23.2527  31.6949

          k = 0.5033 0.0000 0.5033 (   222 PWs)   bands (ev):

   -90.7454   3.4500  14.4099  19.5899  25.5760  33.3961

          k = 0.0000 0.7549 0.0000 (   222 PWs)   bands (ev):

   -90.7430   4.0993  18.4405  20.2843  20.2843  26.0978

          k = 0.8807-0.1258 0.8807 (   225 PWs)   bands (ev):

   -90.7403   6.4367  14.5273  17.5273  20.0589  28.4512

          k = 0.7549 0.0000 0.7549 (   224 PWs)   bands (ev):

   -90.7397   8.9530  10.2347  16.5194  21.0869  30.6212

          k = 0.0000-1.0065 0.0000 (   222 PWs)   bands (ev):

   -90.7391   7.1121  13.7089  19.4250  19.4250  25.1511

          k =-0.2516 0.5033 0.0000 (   219 PWs)   bands (ev):

   -90.7503   1.3595  18.7797  21.6227  26.4549  34.0310

          k = 0.6291-0.3775 0.8807 (   228 PWs)   bands (ev):

   -90.7461   3.9300  13.7081  20.5530  23.8339  33.0767

          k = 0.5033-0.2516 0.7549 (   224 PWs)   bands (ev):

   -90.7416   6.2870  10.2824  20.6069  22.6188  32.7087

          k = 0.7549-0.2516 1.0065 (   226 PWs)   bands (ev):

   -90.7431   4.8198  16.1148  17.6098  21.0817  32.0482

          k = 0.6291-0.1258 0.8807 (   223 PWs)   bands (ev):

   -90.7390   7.8704  11.5422  16.2326  20.7363  33.1204

          k = 0.5033 0.0000 0.7549 (   223 PWs)   bands (ev):

   -90.7399   6.9339  11.6914  16.8983  21.7336  33.5478

          k =-0.2516-1.0065 0.0000 (   226 PWs)   bands (ev):

   -90.7393   8.0333  13.3108  15.2149  19.8334  31.1649

          k =-0.5033-1.0065 0.0000 (   224 PWs)   bands (ev):

   -90.7383  10.7771  10.7771  12.9658  20.1774  35.4866

     the Fermi energy is    10.1806 ev

!    total energy              =     -29.53092141 Ry
     Harris-Foulkes estimate   =     -29.53092141 Ry
     estimated scf accuracy    <          9.6E-11 Ry

     total all-electron energy =       -29.530921 Ry

     The total energy is the sum of the following terms:

     one-electron contribution =     -17.47223041 Ry
     hartree contribution      =       2.57968723 Ry
     xc contribution           =      -4.14947624 Ry
     ewald contribution        =     -12.34132082 Ry
     one-center paw contrib.   =       1.85247396 Ry
     smearing contrib. (-TS)   =      -0.00005512 Ry

     convergence has been achieved in   5 iterations

     Forces acting on atoms (cartesian axes, Ry/au):

     atom    1 type  1   force =     0.00000000    0.00000000    0.00000000

     Total force =     0.000000     Total SCF correction =     0.000000


     Computing stress (Cartesian axis) and pressure

          total   stress  (Ry/bohr**3)                   (kbar)     P=   -3.28
  -0.00002230  -0.00000000   0.00000000         -3.28     -0.00      0.00
  -0.00000000  -0.00002230  -0.00000000         -0.00     -3.28     -0.00
   0.00000000  -0.00000000  -0.00002230          0.00     -0.00     -3.28


     Writing output data file relax.save/
 
     init_run     :      0.39s CPU      0.41s WALL (       2 calls)
     electrons    :      1.87s CPU      2.09s WALL (       6 calls)
     update_pot   :      0.26s CPU      0.26s WALL (       4 calls)
     forces       :      0.15s CPU      0.15s WALL (       6 calls)
     stress       :      0.29s CPU      0.29s WALL (       6 calls)

     Called by init_run:
     wfcinit      :      0.02s CPU      0.03s WALL (       2 calls)
     potinit      :      0.07s CPU      0.07s WALL (       2 calls)
     hinit0       :      0.30s CPU      0.30s WALL (       2 calls)

     Called by electrons:
     c_bands      :      0.96s CPU      1.14s WALL (      32 calls)
     sum_band     :      0.15s CPU      0.18s WALL (      32 calls)
     v_of_rho     :      0.02s CPU      0.03s WALL (      33 calls)
     newd         :      0.01s CPU      0.01s WALL (      33 calls)
     PAW_pot      :      0.94s CPU      0.95s WALL (      37 calls)
     mix_rho      :      0.00s CPU      0.00s WALL (      32 calls)

     Called by c_bands:
     init_us_2    :      0.02s CPU      0.03s WALL (    2378 calls)
     cegterg      :      0.92s CPU      1.10s WALL (     928 calls)

     Called by sum_band:
     sum_band:bec :      0.00s CPU      0.00s WALL (    1044 calls)
     addusdens    :      0.01s CPU      0.01s WALL (      32 calls)

     Called by *egterg:
     h_psi        :      0.64s CPU      0.76s WALL (    3172 calls)
     s_psi        :      0.01s CPU      0.01s WALL (    3172 calls)
     g_psi        :      0.00s CPU      0.01s WALL (    2186 calls)
     cdiaghg      :      0.17s CPU      0.21s WALL (    2853 calls)

     Called by h_psi:
     h_psi:pot    :      0.63s CPU      0.75s WALL (    3172 calls)
     h_psi:calbec :      0.03s CPU      0.03s WALL (    3172 calls)
     vloc_psi     :      0.57s CPU      0.68s WALL (    3172 calls)
     add_vuspsi   :      0.01s CPU      0.01s WALL (    3172 calls)

     General routines
     calbec       :      0.03s CPU      0.04s WALL (    5086 calls)
     fft          :      0.02s CPU      0.02s WALL (     582 calls)
     ffts         :      0.00s CPU      0.00s WALL (      65 calls)
     fftw         :      0.60s CPU      0.71s WALL (   35164 calls)
     interpolate  :      0.00s CPU      0.00s WALL (      33 calls)
 
     Parallel routines
     fft_scatt_xy :      0.10s CPU      0.11s WALL (   35811 calls)
     fft_scatt_yz :      0.23s CPU      0.27s WALL (   35811 calls)
 
     PWSCF        :     4.01s CPU         4.30s WALL

 
   This run was terminated on:  15:18:14   2Aug2019            

=------------------------------------------------------------------------------=
   JOB DONE.
=------------------------------------------------------------------------------=
