===== VARIABLES =====
EXE_PATH = /scr/szymansk/2019-3/qe-bin/bin/pw.x
tpp = 4
Parallel keywords = -nimage 1
MPIRUN_EXE = orterun
PATH = /scr/szymansk/2019-3/mmshare-v4.7/lib/Linux-x86_64/openmpi/bin:/scr/szymansk/2019-3/internal/bin:/scr/szymansk/2019-3/mmshare-v4.7/bin/Linux-x86_64:/scr/szymansk/gaopaw/Examples/N/workdir_pp.5:.:/scr/szymansk/gaopaw/Examples/N:/home/szymansk/bin:/scr/szymansk/dakota/bin:/scr/szymansk/atompaw-4.1.0.5/src/:/usr/lib64/qt-3.3/bin:/usr/local/bin:/usr/local/sbin:/usr/bin:/usr/sbin:/bin:/sbin
LD_LIBRARY_PATH = /scr/szymansk/2019-3/mmshare-v4.7/lib/Linux-x86_64/openmpi/lib:/scr/szymansk/2019-3/internal/lib/ssl:/scr/szymansk/2019-3/internal/lib:/scr/szymansk/2019-3/mmshare-v4.7/lib/Linux-x86_64:/scr/szymansk/2019-3/internal/lib/python3.6/site-packages:/scr/szymansk/dakota/bin:/software/lib/Linux-x86_64/ifort_2017.1.132/mkl/lib/intel64
===== END VARIABLES =====
Invoking: exe_cmd () 
{ 
    "$MPIRUN_EXE" -np $tpp "$EXE_PATH" -in $input_file "${P_KEYWORDS[@]}"
}

     Program PWSCF v.6.3MaX starts on 16Jul2019 at 14:49:48 

     This program is part of the open-source Quantum ESPRESSO suite
     for quantum simulation of materials; please cite
         "P. Giannozzi et al., J. Phys.:Condens. Matter 21 395502 (2009);
         "P. Giannozzi et al., J. Phys.:Condens. Matter 29 465901 (2017);
          URL http://www.quantum-espresso.org", 
     in publications or presentations arising from this work. More details at
     http://www.quantum-espresso.org/quote

     Parallel version (MPI), running on     4 processors

     MPI processes distributed on     1 nodes
     R & G space division:  proc/nbgrp/npool/nimage =       4
     Reading input from N.SC.relax.in
Warning: card &CELL ignored
Warning: card   CELL_DYNAMICS='BFGS' ignored
Warning: card / ignored

     Current dimensions of program PWSCF are:
     Max number of different atomic species (ntypx) = 10
     Max number of k-points (npk) =  40000
     Max angular momentum in pseudopotentials (lmaxx) =  3
               file N.GGA-PBE-paw.UPF: wavefunction(s)  Xn Xn renormalized

     Subspace diagonalization in iterative solution of the eigenvalue problem:
     a serial algorithm will be used

 
     Parallelization info
     --------------------
     sticks:   dense  smooth     PW     G-vecs:    dense   smooth      PW
     Min         546     436    124                19172    13698    2096
     Max         547     438    125                19175    13700    2097
     Sum        2185    1749    497                76693    54795    8385
 


     bravais-lattice index     =            1
     lattice parameter (alat)  =      11.6977  a.u.
     unit-cell volume          =    1600.6686 (a.u.)^3
     number of atoms/cell      =            8
     number of atomic types    =            1
     number of electrons       =        40.00
     number of Kohn-Sham states=           24
     kinetic-energy cutoff     =      40.0000  Ry
     charge density cutoff     =     200.0000  Ry
     convergence threshold     =      1.0E-08
     mixing beta               =       0.7000
     number of iterations used =            8  plain     mixing
     Exchange-correlation      = SLA PW PBX PBC ( 1  4  3  4 0 0)
     nstep                     =           50


     celldm(1)=  11.697700  celldm(2)=   0.000000  celldm(3)=   0.000000
     celldm(4)=   0.000000  celldm(5)=   0.000000  celldm(6)=   0.000000

     crystal axes: (cart. coord. in units of alat)
               a(1) = (   1.000000   0.000000   0.000000 )  
               a(2) = (   0.000000   1.000000   0.000000 )  
               a(3) = (   0.000000   0.000000   1.000000 )  

     reciprocal axes: (cart. coord. in units 2 pi/alat)
               b(1) = (  1.000000  0.000000  0.000000 )  
               b(2) = (  0.000000  1.000000  0.000000 )  
               b(3) = (  0.000000  0.000000  1.000000 )  


     PseudoPot. # 1 for N  read from file:
     ./N.GGA-PBE-paw.UPF
     MD5 check sum: 3c7218d581a4ec23ca55444e47674bd1
     Pseudo is Projector augmented-wave + core cor, Zval =  5.0
     Generated using ATOMPAW code
     Shape of augmentation charge: SINC**2
     Using radial grid of 2342 points,  4 beta functions with: 
                l(1) =   0
                l(2) =   0
                l(3) =   1
                l(4) =   1
     Q(r) pseudized with 0 coefficients 


     atomic species   valence    mass     pseudopotential
        N              5.00    14.00674     N ( 1.00)

     24 Sym. Ops., with inversion, found (18 have fractional translation)



   Cartesian axes

     site n.     atom                  positions (alat units)
         1           N   tau(   1) = (   0.5518900   0.5518900   0.5518900  )
         2           N   tau(   2) = (   0.9481100   0.4481100   0.0518900  )
         3           N   tau(   3) = (   0.4481100   0.0518900   0.9481100  )
         4           N   tau(   4) = (   0.0518900   0.9481100   0.4481100  )
         5           N   tau(   5) = (   0.4481100   0.4481100   0.4481100  )
         6           N   tau(   6) = (   0.0518900   0.5518900   0.9481100  )
         7           N   tau(   7) = (   0.5518900   0.9481100   0.0518900  )
         8           N   tau(   8) = (   0.9481100   0.0518900   0.5518900  )

     number of k points=    45  Fermi-Dirac smearing, width (Ry)=  0.0020
                       cart. coord. in units 2pi/alat
        k(    1) = (   0.0000000   0.0000000   0.0000000), wk =   0.0039062
        k(    2) = (   0.0000000   0.0000000   0.1250000), wk =   0.0234375
        k(    3) = (   0.0000000   0.0000000   0.2500000), wk =   0.0234375
        k(    4) = (   0.0000000   0.0000000   0.3750000), wk =   0.0234375
        k(    5) = (   0.0000000   0.0000000  -0.5000000), wk =   0.0117188
        k(    6) = (   0.0000000   0.1250000   0.1250000), wk =   0.0468750
        k(    7) = (   0.0000000   0.1250000   0.2500000), wk =   0.0468750
        k(    8) = (   0.0000000   0.1250000   0.3750000), wk =   0.0468750
        k(    9) = (   0.0000000   0.1250000  -0.5000000), wk =   0.0234375
        k(   10) = (   0.0000000   0.2500000   0.2500000), wk =   0.0468750
        k(   11) = (   0.0000000   0.2500000   0.3750000), wk =   0.0468750
        k(   12) = (   0.0000000   0.2500000  -0.5000000), wk =   0.0234375
        k(   13) = (   0.0000000   0.3750000   0.3750000), wk =   0.0468750
        k(   14) = (   0.0000000   0.3750000  -0.5000000), wk =   0.0234375
        k(   15) = (   0.0000000  -0.5000000  -0.5000000), wk =   0.0117188
        k(   16) = (   0.1250000   0.1250000   0.1250000), wk =   0.0312500
        k(   17) = (   0.1250000   0.1250000   0.2500000), wk =   0.0937500
        k(   18) = (   0.1250000   0.1250000   0.3750000), wk =   0.0937500
        k(   19) = (   0.1250000   0.1250000  -0.5000000), wk =   0.0468750
        k(   20) = (   0.1250000   0.2500000   0.2500000), wk =   0.0937500
        k(   21) = (   0.1250000   0.2500000   0.3750000), wk =   0.0937500
        k(   22) = (   0.1250000   0.2500000  -0.5000000), wk =   0.0468750
        k(   23) = (   0.1250000   0.3750000   0.3750000), wk =   0.0937500
        k(   24) = (   0.1250000   0.3750000  -0.5000000), wk =   0.0468750
        k(   25) = (   0.1250000  -0.5000000  -0.5000000), wk =   0.0234375
        k(   26) = (   0.2500000   0.2500000   0.2500000), wk =   0.0312500
        k(   27) = (   0.2500000   0.2500000   0.3750000), wk =   0.0937500
        k(   28) = (   0.2500000   0.2500000  -0.5000000), wk =   0.0468750
        k(   29) = (   0.2500000   0.3750000   0.3750000), wk =   0.0937500
        k(   30) = (   0.2500000   0.3750000  -0.5000000), wk =   0.0468750
        k(   31) = (   0.2500000  -0.5000000  -0.5000000), wk =   0.0234375
        k(   32) = (   0.3750000   0.3750000   0.3750000), wk =   0.0312500
        k(   33) = (   0.3750000   0.3750000  -0.5000000), wk =   0.0468750
        k(   34) = (   0.3750000  -0.5000000  -0.5000000), wk =   0.0234375
        k(   35) = (  -0.5000000  -0.5000000  -0.5000000), wk =   0.0039062
        k(   36) = (   0.0000000   0.2500000   0.1250000), wk =   0.0468750
        k(   37) = (   0.0000000   0.3750000   0.1250000), wk =   0.0468750
        k(   38) = (   0.0000000  -0.5000000   0.1250000), wk =   0.0234375
        k(   39) = (   0.0000000   0.3750000   0.2500000), wk =   0.0468750
        k(   40) = (   0.0000000  -0.5000000   0.2500000), wk =   0.0234375
        k(   41) = (   0.0000000  -0.5000000   0.3750000), wk =   0.0234375
        k(   42) = (  -0.1250000   0.3750000   0.2500000), wk =   0.0937500
        k(   43) = (  -0.1250000  -0.5000000   0.2500000), wk =   0.0468750
        k(   44) = (  -0.1250000  -0.5000000   0.3750000), wk =   0.0468750
        k(   45) = (  -0.2500000  -0.5000000   0.3750000), wk =   0.0468750

     Dense  grid:    76693 G-vectors     FFT dimensions: (  54,  54,  54)

     Smooth grid:    54795 G-vectors     FFT dimensions: (  48,  48,  48)

     Estimated max dynamical RAM per process >      60.97 MB

     Estimated total dynamical RAM >     243.87 MB

     Initial potential from superposition of free atoms

     starting charge   39.99994, renormalised to   40.00000
     Starting wfcs are   64 randomized atomic wfcs
     Checking if some PAW data can be deallocated... 

     total cpu time spent up to now is        3.0 secs

     Self-consistent Calculation

     iteration #  1     ecut=    40.00 Ry     beta= 0.70
     Davidson diagonalization with overlap
     ethr =  1.00E-02,  avg # of iterations =  3.0

     total cpu time spent up to now is        6.0 secs

     total energy              =    -224.24115157 Ry
     Harris-Foulkes estimate   =    -224.42169640 Ry
     estimated scf accuracy    <       0.50552109 Ry

     iteration #  2     ecut=    40.00 Ry     beta= 0.70
     Davidson diagonalization with overlap
     ethr =  1.26E-03,  avg # of iterations =  2.0

     total cpu time spent up to now is        9.2 secs

     total energy              =    -224.33713161 Ry
     Harris-Foulkes estimate   =    -224.35777338 Ry
     estimated scf accuracy    <       0.04491434 Ry

     iteration #  3     ecut=    40.00 Ry     beta= 0.70
     Davidson diagonalization with overlap
     ethr =  1.12E-04,  avg # of iterations =  2.0

     total cpu time spent up to now is       11.5 secs

     total energy              =    -224.34809277 Ry
     Harris-Foulkes estimate   =    -224.34609183 Ry
     estimated scf accuracy    <       0.00194245 Ry

     iteration #  4     ecut=    40.00 Ry     beta= 0.70
     Davidson diagonalization with overlap
     ethr =  4.86E-06,  avg # of iterations =  2.1

     total cpu time spent up to now is       14.1 secs

     total energy              =    -224.34829727 Ry
     Harris-Foulkes estimate   =    -224.34827712 Ry
     estimated scf accuracy    <       0.00002399 Ry

     iteration #  5     ecut=    40.00 Ry     beta= 0.70
     Davidson diagonalization with overlap
     c_bands:  2 eigenvalues not converged
     c_bands:  1 eigenvalues not converged
     c_bands:  3 eigenvalues not converged
     c_bands:  3 eigenvalues not converged
     ethr =  6.00E-08,  avg # of iterations =  8.8

     total cpu time spent up to now is       21.1 secs

     total energy              =    -224.34834281 Ry
     Harris-Foulkes estimate   =    -224.34834472 Ry
     estimated scf accuracy    <       0.00000514 Ry

     iteration #  6     ecut=    40.00 Ry     beta= 0.70
     Davidson diagonalization with overlap
     ethr =  1.29E-08,  avg # of iterations =  2.1

     total cpu time spent up to now is       24.9 secs

     total energy              =    -224.34834362 Ry
     Harris-Foulkes estimate   =    -224.34834353 Ry
     estimated scf accuracy    <       0.00000011 Ry

     iteration #  7     ecut=    40.00 Ry     beta= 0.70
     Davidson diagonalization with overlap
     ethr =  2.84E-10,  avg # of iterations =  5.9

     total cpu time spent up to now is       30.0 secs

     End of self-consistent calculation

          k = 0.0000 0.0000 0.0000 (  6859 PWs)   bands (ev):

   -24.7219 -24.6959 -24.6959 -24.6959 -10.3347 -10.3347 -10.3347 -10.2741
    -7.7668  -7.7668  -7.7668  -7.6558  -7.6558  -7.5716  -7.5716  -7.5716
    -6.9673  -6.4700  -6.4700  -6.4700   1.1220   1.1220   1.1222   1.7149

          k = 0.0000 0.0000 0.1250 (  6867 PWs)   bands (ev):

   -24.7198 -24.6991 -24.6974 -24.6911 -10.3350 -10.3333 -10.3322 -10.2835
    -7.7706  -7.7603  -7.7591  -7.6832  -7.6777  -7.6022  -7.5865  -7.5851
    -6.9341  -6.4883  -6.4740  -6.4589   1.1334   1.1399   1.1538   1.7156

          k = 0.0000 0.0000 0.2500 (  6836 PWs)   bands (ev):

   -24.7110 -24.6939 -24.6902 -24.6848 -10.3337 -10.3333 -10.3243 -10.2827
    -7.7705  -7.7445  -7.7396  -7.6829  -7.6653  -7.6400  -7.6014  -7.5919
    -6.8483  -6.5098  -6.4552  -6.4411   1.2020   1.2026   1.2644   1.7076

          k = 0.0000 0.0000 0.3750 (  6860 PWs)   bands (ev):

   -24.7095 -24.6953 -24.6887 -24.6884 -10.3387 -10.3374 -10.3164 -10.2949
    -7.7911  -7.7520  -7.7294  -7.7002  -7.6815  -7.6538  -7.6499  -7.6129
    -6.7457  -6.5722  -6.4517  -6.4507   1.2479   1.2640   1.4021   1.6611

          k = 0.0000 0.0000-0.5000 (  6848 PWs)   bands (ev):

   -24.7013 -24.7013 -24.6899 -24.6899 -10.3359 -10.3359 -10.3037 -10.3037
    -7.7657  -7.7657  -7.7198  -7.7198  -7.6553  -7.6553  -7.6362  -7.6362
    -6.6493  -6.6493  -6.4521  -6.4521   1.2900   1.2904   1.5617   1.5625

          k = 0.0000 0.1250 0.1250 (  6855 PWs)   bands (ev):

   -24.7127 -24.6931 -24.6908 -24.6903 -10.3360 -10.3337 -10.3317 -10.2825
    -7.7710  -7.7660  -7.7510  -7.6812  -7.6766  -7.6279  -7.5869  -7.5762
    -6.8972  -6.4740  -6.4687  -6.4587   1.1569   1.1756   1.1821   1.7172

          k = 0.0000 0.1250 0.2500 (  6837 PWs)   bands (ev):

   -24.7117 -24.6891 -24.6889 -24.6853 -10.3330 -10.3320 -10.3253 -10.2879
    -7.7739  -7.7424  -7.7400  -7.6890  -7.6652  -7.6593  -7.5990  -7.5955
    -6.8301  -6.4976  -6.4591  -6.4466   1.2101   1.2406   1.2924   1.6938

          k = 0.0000 0.1250 0.3750 (  6815 PWs)   bands (ev):

   -24.7050 -24.6924 -24.6839 -24.6825 -10.3336 -10.3312 -10.3119 -10.2902
    -7.7722  -7.7311  -7.7181  -7.6902  -7.6600  -7.6381  -7.6124  -7.6012
    -6.7302  -6.5603  -6.4456  -6.4423   1.2845   1.3086   1.4182   1.6694

          k = 0.0000 0.1250-0.5000 (  6842 PWs)   bands (ev):

   -24.7019 -24.7019 -24.6869 -24.6869 -10.3346 -10.3346 -10.3041 -10.3041
    -7.7731  -7.7731  -7.7031  -7.7031  -7.6487  -7.6487  -7.6300  -7.6300
    -6.6447  -6.6447  -6.4531  -6.4531   1.3196   1.3196   1.5717   1.5745

          k = 0.0000 0.2500 0.2500 (  6849 PWs)   bands (ev):

   -24.7078 -24.6909 -24.6886 -24.6869 -10.3368 -10.3279 -10.3271 -10.2944
    -7.7837  -7.7623  -7.7235  -7.6849  -7.6766  -7.6697  -7.6114  -7.6016
    -6.7781  -6.4965  -6.4927  -6.4526   1.2677   1.3266   1.3274   1.6764

          k = 0.0000 0.2500 0.3750 (  6826 PWs)   bands (ev):

   -24.7040 -24.6922 -24.6877 -24.6816 -10.3338 -10.3283 -10.3155 -10.2983
    -7.7830  -7.7361  -7.7325  -7.6830  -7.6560  -7.6357  -7.6045  -7.6044
    -6.6979  -6.5504  -6.4807  -6.4517   1.3305   1.3790   1.4526   1.6606

          k = 0.0000 0.2500-0.5000 (  6838 PWs)   bands (ev):

   -24.6972 -24.6972 -24.6885 -24.6885 -10.3328 -10.3328 -10.3080 -10.3080
    -7.7694  -7.7694  -7.7143  -7.7143  -7.6367  -7.6367  -7.6207  -7.6207
    -6.6193  -6.6193  -6.4737  -6.4737   1.3825   1.3830   1.5898   1.5914

          k = 0.0000 0.3750 0.3750 (  6838 PWs)   bands (ev):

   -24.7006 -24.6922 -24.6906 -24.6858 -10.3322 -10.3231 -10.3221 -10.3069
    -7.7822  -7.7613  -7.7425  -7.7012  -7.6461  -7.6354  -7.6062  -7.5970
    -6.6461  -6.5309  -6.5272  -6.4799   1.4011   1.4871   1.4884   1.6416

          k = 0.0000 0.3750-0.5000 (  6838 PWs)   bands (ev):

   -24.6940 -24.6940 -24.6895 -24.6895 -10.3297 -10.3297 -10.3135 -10.3135
    -7.7718  -7.7718  -7.7371  -7.7371  -7.6266  -7.6266  -7.6150  -7.6150
    -6.5817  -6.5817  -6.5051  -6.5051   1.4642   1.4658   1.6094   1.6323

          k = 0.0000-0.5000-0.5000 (  6872 PWs)   bands (ev):

   -24.6948 -24.6948 -24.6948 -24.6948 -10.3259 -10.3259 -10.3259 -10.3259
    -7.7761  -7.7761  -7.7761  -7.7761  -7.6324  -7.6324  -7.6324  -7.6324
    -6.5485  -6.5485  -6.5485  -6.5485   1.5502   1.5502   1.5504   1.5526

          k = 0.1250 0.1250 0.1250 (  6847 PWs)   bands (ev):

   -24.7107 -24.6919 -24.6919 -24.6895 -10.3323 -10.3323 -10.3311 -10.2855
    -7.7778  -7.7503  -7.7503  -7.6766  -7.6766  -7.6455  -7.5836  -7.5836
    -6.8729  -6.4701  -6.4701  -6.4653   1.1898   1.2038   1.2042   1.7175

          k = 0.1250 0.1250 0.2500 (  6838 PWs)   bands (ev):

   -24.7105 -24.6919 -24.6906 -24.6839 -10.3333 -10.3314 -10.3247 -10.2894
    -7.7814  -7.7442  -7.7212  -7.6797  -7.6719  -7.6609  -7.6023  -7.5896
    -6.8119  -6.5003  -6.4669  -6.4540   1.2339   1.2654   1.3034   1.6974

          k = 0.1250 0.1250 0.3750 (  6817 PWs)   bands (ev):

   -24.7049 -24.6900 -24.6853 -24.6842 -10.3322 -10.3313 -10.3120 -10.2945
    -7.7781  -7.7473  -7.7016  -7.6865  -7.6658  -7.6419  -7.6135  -7.5891
    -6.7230  -6.5514  -6.4556  -6.4503   1.3053   1.3320   1.4392   1.6679

          k = 0.1250 0.1250-0.5000 (  6838 PWs)   bands (ev):

   -24.6994 -24.6994 -24.6871 -24.6871 -10.3351 -10.3351 -10.3043 -10.3043
    -7.7741  -7.7741  -7.7034  -7.7034  -7.6532  -7.6532  -7.6148  -7.6148
    -6.6347  -6.6347  -6.4602  -6.4602   1.3446   1.3457   1.5683   1.5686

          k = 0.1250 0.2500 0.2500 (  6839 PWs)   bands (ev):

   -24.7085 -24.6928 -24.6893 -24.6854 -10.3333 -10.3268 -10.3264 -10.2947
    -7.7884  -7.7403  -7.7196  -7.6982  -7.6693  -7.6560  -7.5991  -7.5914
    -6.7685  -6.5001  -6.4889  -6.4618   1.2859   1.3470   1.3558   1.6838

          k = 0.1250 0.2500 0.3750 (  6835 PWs)   bands (ev):

   -24.7049 -24.6919 -24.6897 -24.6844 -10.3342 -10.3297 -10.3186 -10.2993
    -7.7861  -7.7509  -7.7271  -7.6998  -7.6486  -7.6336  -7.6114  -7.6032
    -6.6950  -6.5457  -6.4871  -6.4655   1.3463   1.3977   1.4662   1.6667

          k = 0.1250 0.2500-0.5000 (  6838 PWs)   bands (ev):

   -24.6988 -24.6988 -24.6888 -24.6888 -10.3322 -10.3322 -10.3089 -10.3089
    -7.7731  -7.7731  -7.7088  -7.7088  -7.6360  -7.6360  -7.6168  -7.6168
    -6.6159  -6.6159  -6.4815  -6.4815   1.3993   1.3994   1.5921   1.5922

          k = 0.1250 0.3750 0.3750 (  6848 PWs)   bands (ev):

   -24.7025 -24.6921 -24.6902 -24.6883 -10.3334 -10.3250 -10.3243 -10.3085
    -7.7892  -7.7629  -7.7478  -7.7156  -7.6491  -7.6346  -7.6110  -7.6027
    -6.6474  -6.5334  -6.5282  -6.4896   1.4137   1.4887   1.5059   1.6365

          k = 0.1250 0.3750-0.5000 (  6824 PWs)   bands (ev):

   -24.6942 -24.6942 -24.6862 -24.6862 -10.3263 -10.3263 -10.3151 -10.3151
    -7.7661  -7.7661  -7.7333  -7.7333  -7.6147  -7.6147  -7.6086  -7.6086
    -6.5801  -6.5801  -6.5029  -6.5029   1.4811   1.4811   1.6119   1.6119

          k = 0.1250-0.5000-0.5000 (  6848 PWs)   bands (ev):

   -24.6911 -24.6911 -24.6911 -24.6911 -10.3241 -10.3241 -10.3241 -10.3241
    -7.7651  -7.7651  -7.7651  -7.7651  -7.6177  -7.6177  -7.6177  -7.6177
    -6.5448  -6.5448  -6.5448  -6.5448   1.5546   1.5547   1.5560   1.5595

          k = 0.2500 0.2500 0.2500 (  6809 PWs)   bands (ev):

   -24.7021 -24.6884 -24.6850 -24.6850 -10.3265 -10.3265 -10.3249 -10.2961
    -7.7860  -7.7241  -7.7241  -7.6991  -7.6433  -7.6433  -7.5894  -7.5894
    -6.7204  -6.4839  -6.4839  -6.4834   1.3574   1.4120   1.4139   1.6851

          k = 0.2500 0.2500 0.3750 (  6844 PWs)   bands (ev):

   -24.7026 -24.6948 -24.6917 -24.6887 -10.3320 -10.3310 -10.3220 -10.3043
    -7.7948  -7.7593  -7.7256  -7.7161  -7.6498  -7.6293  -7.6068  -7.5940
    -6.6709  -6.5478  -6.5002  -6.4932   1.3906   1.4502   1.5014   1.6329

          k = 0.2500 0.2500-0.5000 (  6834 PWs)   bands (ev):

   -24.6976 -24.6976 -24.6892 -24.6892 -10.3298 -10.3298 -10.3131 -10.3131
    -7.7734  -7.7734  -7.7196  -7.7196  -7.6295  -7.6295  -7.5982  -7.5982
    -6.6026  -6.6026  -6.4959  -6.4959   1.4467   1.4486   1.6080   1.6361

          k = 0.2500 0.3750 0.3750 (  6855 PWs)   bands (ev):

   -24.7017 -24.6940 -24.6931 -24.6906 -10.3324 -10.3275 -10.3265 -10.3117
    -7.7938  -7.7600  -7.7513  -7.7335  -7.6370  -7.6269  -7.6033  -7.5989
    -6.6364  -6.5422  -6.5367  -6.5136   1.4462   1.5181   1.5368   1.6079

          k = 0.2500 0.3750-0.5000 (  6852 PWs)   bands (ev):

   -24.6971 -24.6971 -24.6914 -24.6914 -10.3302 -10.3302 -10.3190 -10.3190
    -7.7777  -7.7777  -7.7415  -7.7415  -7.6223  -7.6223  -7.6025  -7.6025
    -6.5858  -6.5858  -6.5256  -6.5256   1.4990   1.4993   1.5946   1.5950

          k = 0.2500-0.5000-0.5000 (  6860 PWs)   bands (ev):

   -24.6937 -24.6937 -24.6937 -24.6937 -10.3267 -10.3267 -10.3267 -10.3267
    -7.7682  -7.7682  -7.7682  -7.7682  -7.6127  -7.6127  -7.6127  -7.6127
    -6.5566  -6.5566  -6.5566  -6.5566   1.5532   1.5532   1.5553   1.5579

          k = 0.3750 0.3750 0.3750 (  6839 PWs)   bands (ev):

   -24.6990 -24.6945 -24.6894 -24.6894 -10.3275 -10.3257 -10.3257 -10.3162
    -7.7837  -7.7566  -7.7465  -7.7465  -7.6166  -7.6166  -7.5891  -7.5891
    -6.6151  -6.5467  -6.5365  -6.5365   1.5020   1.5641   1.5642   1.5798

          k = 0.3750 0.3750-0.5000 (  6854 PWs)   bands (ev):

   -24.6959 -24.6959 -24.6920 -24.6920 -10.3297 -10.3297 -10.3227 -10.3227
    -7.7758  -7.7758  -7.7567  -7.7567  -7.6141  -7.6141  -7.5959  -7.5959
    -6.5804  -6.5804  -6.5468  -6.5468   1.5300   1.5300   1.5793   1.5793

          k = 0.3750-0.5000-0.5000 (  6844 PWs)   bands (ev):

   -24.6933 -24.6933 -24.6933 -24.6933 -10.3256 -10.3256 -10.3256 -10.3256
    -7.7669  -7.7669  -7.7669  -7.7669  -7.5954  -7.5954  -7.5954  -7.5954
    -6.5646  -6.5646  -6.5646  -6.5646   1.5573   1.5573   1.5581   1.5593

          k =-0.5000-0.5000-0.5000 (  6776 PWs)   bands (ev):

   -24.6837 -24.6837 -24.6837 -24.6837 -10.3203 -10.3203 -10.3203 -10.3203
    -7.7465  -7.7465  -7.7465  -7.7465  -7.5644  -7.5644  -7.5644  -7.5644
    -6.5451  -6.5451  -6.5451  -6.5451   1.5822   1.5822   1.5822   1.5824

          k = 0.0000 0.2500 0.1250 (  6837 PWs)   bands (ev):

   -24.7108 -24.6915 -24.6874 -24.6853 -10.3333 -10.3322 -10.3246 -10.2880
    -7.7680  -7.7625  -7.7209  -7.6848  -7.6691  -7.6635  -7.6088  -7.5853
    -6.8292  -6.5020  -6.4586  -6.4449   1.2155   1.2466   1.2862   1.7005

          k = 0.0000 0.3750 0.1250 (  6815 PWs)   bands (ev):

   -24.7039 -24.6903 -24.6850 -24.6846 -10.3330 -10.3315 -10.3120 -10.2906
    -7.7726  -7.7534  -7.6955  -7.6817  -7.6730  -7.6454  -7.6156  -7.5839
    -6.7300  -6.5564  -6.4498  -6.4443   1.2847   1.3092   1.4301   1.6677

          k = 0.0000-0.5000 0.1250 (  6842 PWs)   bands (ev):

   -24.7021 -24.7021 -24.6866 -24.6866 -10.3343 -10.3343 -10.3044 -10.3044
    -7.7682  -7.7682  -7.7034  -7.7034  -7.6675  -7.6675  -7.6142  -7.6142
    -6.6458  -6.6458  -6.4535  -6.4535   1.3227   1.3229   1.5573   1.5577

          k = 0.0000 0.3750 0.2500 (  6826 PWs)   bands (ev):

   -24.7026 -24.6918 -24.6858 -24.6853 -10.3329 -10.3277 -10.3162 -10.2989
    -7.7715  -7.7670  -7.7022  -7.6825  -7.6673  -7.6526  -7.6034  -7.5899
    -6.6958  -6.5487  -6.4766  -6.4590   1.3391   1.3777   1.4569   1.6679

          k = 0.0000-0.5000 0.2500 (  6838 PWs)   bands (ev):

   -24.6981 -24.6981 -24.6875 -24.6875 -10.3325 -10.3325 -10.3080 -10.3080
    -7.7749  -7.7749  -7.7001  -7.7001  -7.6657  -7.6657  -7.6014  -7.6014
    -6.6189  -6.6189  -6.4728  -6.4728   1.3864   1.3864   1.5792   1.5792

          k = 0.0000-0.5000 0.3750 (  6838 PWs)   bands (ev):

   -24.6936 -24.6936 -24.6898 -24.6898 -10.3291 -10.3291 -10.3144 -10.3144
    -7.7796  -7.7796  -7.7311  -7.7311  -7.6404  -7.6404  -7.5984  -7.5984
    -6.5815  -6.5815  -6.5061  -6.5061   1.4738   1.4745   1.6017   1.6142

          k =-0.1250 0.3750 0.2500 (  6835 PWs)   bands (ev):

   -24.7038 -24.6947 -24.6878 -24.6845 -10.3328 -10.3295 -10.3192 -10.3002
    -7.7831  -7.7604  -7.7177  -7.6984  -7.6596  -7.6415  -7.6104  -7.5902
    -6.6935  -6.5501  -6.4833  -6.4657   1.3528   1.4031   1.4722   1.6601

          k =-0.1250-0.5000 0.2500 (  6838 PWs)   bands (ev):

   -24.7003 -24.7003 -24.6872 -24.6872 -10.3322 -10.3322 -10.3090 -10.3090
    -7.7772  -7.7772  -7.7061  -7.7061  -7.6517  -7.6517  -7.5996  -7.5996
    -6.6196  -6.6196  -6.4775  -6.4775   1.4059   1.4060   1.5852   1.5866

          k =-0.1250-0.5000 0.3750 (  6824 PWs)   bands (ev):

   -24.6954 -24.6954 -24.6849 -24.6849 -10.3264 -10.3264 -10.3148 -10.3148
    -7.7699  -7.7699  -7.7257  -7.7257  -7.6335  -7.6335  -7.5933  -7.5933
    -6.5840  -6.5840  -6.4999  -6.4999   1.4881   1.4881   1.6029   1.6031

          k =-0.2500-0.5000 0.3750 (  6852 PWs)   bands (ev):

   -24.6968 -24.6968 -24.6917 -24.6917 -10.3304 -10.3304 -10.3191 -10.3191
    -7.7764  -7.7764  -7.7460  -7.7460  -7.6229  -7.6229  -7.5981  -7.5981
    -6.5854  -6.5854  -6.5261  -6.5261   1.5006   1.5018   1.5960   1.5964

     the Fermi energy is    -4.8652 ev

!    total energy              =    -224.34834366 Ry
     Harris-Foulkes estimate   =    -224.34834366 Ry
     estimated scf accuracy    <          3.4E-09 Ry

     total all-electron energy =      -224.348344 Ry

     The total energy is the sum of the following terms:

     one-electron contribution =    -137.73714426 Ry
     hartree contribution      =      78.82751688 Ry
     xc contribution           =     -39.56380581 Ry
     ewald contribution        =     -57.27163594 Ry
     one-center paw contrib.   =     -68.60327452 Ry
     smearing contrib. (-TS)   =       0.00000000 Ry

     convergence has been achieved in   7 iterations

     Forces acting on atoms (cartesian axes, Ry/au):

     atom    1 type  1   force =     0.03243199    0.03243199    0.03243199
     atom    2 type  1   force =    -0.03243199   -0.03243199    0.03243199
     atom    3 type  1   force =    -0.03243199    0.03243199   -0.03243199
     atom    4 type  1   force =     0.03243199   -0.03243199   -0.03243199
     atom    5 type  1   force =    -0.03243199   -0.03243199   -0.03243199
     atom    6 type  1   force =     0.03243199    0.03243199   -0.03243199
     atom    7 type  1   force =     0.03243199   -0.03243199    0.03243199
     atom    8 type  1   force =    -0.03243199    0.03243199    0.03243199

     Total force =     0.158884     Total SCF correction =     0.000086

     BFGS Geometry Optimization

     number of scf cycles    =   1
     number of bfgs steps    =   0

     energy   new            =    -224.3483436557 Ry

     new trust radius        =       0.0561738481 bohr
     new conv_thr            =       0.0000000100 Ry


ATOMIC_POSITIONS (crystal)
N        0.554662510   0.554662510   0.554662510
N        0.945337490   0.445337490   0.054662510
N        0.445337490   0.054662510   0.945337490
N        0.054662510   0.945337490   0.445337490
N        0.445337490   0.445337490   0.445337490
N        0.054662510   0.554662510   0.945337490
N        0.554662510   0.945337490   0.054662510
N        0.945337490   0.054662510   0.554662510



     Writing output data file relax.save/
     NEW-OLD atomic charge density approx. for the potential

     total cpu time spent up to now is       30.8 secs

     Self-consistent Calculation

     iteration #  1     ecut=    40.00 Ry     beta= 0.70
     Davidson diagonalization with overlap
     ethr =  1.00E-06,  avg # of iterations =  6.4

     total cpu time spent up to now is       36.8 secs

     total energy              =    -224.28992394 Ry
     Harris-Foulkes estimate   =    -224.27567784 Ry
     estimated scf accuracy    <       0.02412186 Ry

     iteration #  2     ecut=    40.00 Ry     beta= 0.70
     Davidson diagonalization with overlap
     ethr =  6.03E-05,  avg # of iterations =  2.0

     total cpu time spent up to now is       39.2 secs

     total energy              =    -224.29576596 Ry
     Harris-Foulkes estimate   =    -224.29725516 Ry
     estimated scf accuracy    <       0.00256406 Ry

     iteration #  3     ecut=    40.00 Ry     beta= 0.70
     Davidson diagonalization with overlap
     ethr =  6.41E-06,  avg # of iterations =  2.0

     total cpu time spent up to now is       41.4 secs

     total energy              =    -224.29631423 Ry
     Harris-Foulkes estimate   =    -224.29630571 Ry
     estimated scf accuracy    <       0.00005750 Ry

     iteration #  4     ecut=    40.00 Ry     beta= 0.70
     Davidson diagonalization with overlap
     ethr =  1.44E-07,  avg # of iterations =  1.4

     total cpu time spent up to now is       43.2 secs

     total energy              =    -224.29631771 Ry
     Harris-Foulkes estimate   =    -224.29631761 Ry
     estimated scf accuracy    <       0.00000091 Ry

     iteration #  5     ecut=    40.00 Ry     beta= 0.70
     Davidson diagonalization with overlap
     ethr =  2.28E-09,  avg # of iterations =  5.2

     total cpu time spent up to now is       46.6 secs

     total energy              =    -224.29631837 Ry
     Harris-Foulkes estimate   =    -224.29631839 Ry
     estimated scf accuracy    <       0.00000005 Ry

     iteration #  6     ecut=    40.00 Ry     beta= 0.70
     Davidson diagonalization with overlap
     ethr =  1.20E-10,  avg # of iterations =  2.1

     total cpu time spent up to now is       49.0 secs

     End of self-consistent calculation

          k = 0.0000 0.0000 0.0000 (  6859 PWs)   bands (ev):

   -23.8338 -23.7988 -23.7988 -23.7988 -10.7486 -10.7486 -10.7486 -10.6911
    -7.3183  -7.3183  -7.3183  -7.1969  -7.1969  -7.1067  -7.1067  -7.1067
    -6.8272  -6.3349  -6.3349  -6.3349   0.5945   0.5945   0.5945   1.1059

          k = 0.0000 0.0000 0.1250 (  6867 PWs)   bands (ev):

   -23.8293 -23.8012 -23.7991 -23.7956 -10.7506 -10.7471 -10.7469 -10.6974
    -7.3235  -7.3113  -7.3105  -7.2199  -7.2167  -7.1450  -7.1179  -7.1173
    -6.7775  -6.3485  -6.3362  -6.3279   0.6002   0.6076   0.6196   1.1062

          k = 0.0000 0.0000 0.2500 (  6836 PWs)   bands (ev):

   -23.8203 -23.7988 -23.7941 -23.7910 -10.7487 -10.7464 -10.7385 -10.6972
    -7.3267  -7.2953  -7.2924  -7.2209  -7.2032  -7.1923  -7.1326  -7.1220
    -6.6802  -6.3651  -6.3189  -6.3131   0.6641   0.6643   0.7215   1.0936

          k = 0.0000 0.0000 0.3750 (  6860 PWs)   bands (ev):

   -23.8149 -23.8022 -23.7943 -23.7932 -10.7517 -10.7503 -10.7301 -10.7085
    -7.3479  -7.3179  -7.2769  -7.2420  -7.2245  -7.1897  -7.1820  -7.1412
    -6.5684  -6.4217  -6.3217  -6.3168   0.7008   0.7183   0.8326   1.0556

          k = 0.0000 0.0000-0.5000 (  6848 PWs)   bands (ev):

   -23.8073 -23.8073 -23.7951 -23.7951 -10.7498 -10.7498 -10.7182 -10.7182
    -7.3327  -7.3327  -7.2652  -7.2652  -7.1917  -7.1917  -7.1675  -7.1675
    -6.4792  -6.4792  -6.3189  -6.3189   0.7429   0.7431   0.9759   0.9763

          k = 0.0000 0.1250 0.1250 (  6855 PWs)   bands (ev):

   -23.8227 -23.7971 -23.7955 -23.7950 -10.7489 -10.7475 -10.7453 -10.6962
    -7.3262  -7.3189  -7.2990  -7.2191  -7.2140  -7.1706  -7.1172  -7.1056
    -6.7389  -6.3399  -6.3356  -6.3260   0.6226   0.6383   0.6449   1.1059

          k = 0.0000 0.1250 0.2500 (  6837 PWs)   bands (ev):

   -23.8203 -23.7950 -23.7936 -23.7911 -10.7466 -10.7458 -10.7396 -10.7010
    -7.3329  -7.2952  -7.2922  -7.2281  -7.2073  -7.2017  -7.1296  -7.1269
    -6.6596  -6.3557  -6.3260  -6.3141   0.6707   0.6969   0.7448   1.0849

          k = 0.0000 0.1250 0.3750 (  6815 PWs)   bands (ev):

   -23.8123 -23.7997 -23.7906 -23.7896 -10.7465 -10.7460 -10.7263 -10.7053
    -7.3326  -7.2975  -7.2684  -7.2346  -7.2015  -7.1735  -7.1464  -7.1300
    -6.5564  -6.4076  -6.3165  -6.3064   0.7388   0.7608   0.8500   1.0630

          k = 0.0000 0.1250-0.5000 (  6842 PWs)   bands (ev):

   -23.8083 -23.8083 -23.7934 -23.7934 -10.7481 -10.7481 -10.7185 -10.7185
    -7.3389  -7.3389  -7.2495  -7.2495  -7.1841  -7.1841  -7.1625  -7.1625
    -6.4788  -6.4788  -6.3210  -6.3210   0.7688   0.7688   0.9829   0.9838

          k = 0.0000 0.2500 0.2500 (  6849 PWs)   bands (ev):

   -23.8165 -23.7966 -23.7958 -23.7921 -10.7488 -10.7414 -10.7404 -10.7075
    -7.3435  -7.3180  -7.2756  -7.2265  -7.2229  -7.2049  -7.1417  -7.1292
    -6.6110  -6.3573  -6.3568  -6.3186   0.7205   0.7716   0.7728   1.0717

          k = 0.0000 0.2500 0.3750 (  6826 PWs)   bands (ev):

   -23.8115 -23.8000 -23.7943 -23.7893 -10.7465 -10.7420 -10.7299 -10.7119
    -7.3459  -7.3004  -7.2850  -7.2283  -7.1932  -7.1690  -7.1365  -7.1338
    -6.5306  -6.4046  -6.3431  -6.3196   0.7781   0.8206   0.8794   1.0548

          k = 0.0000 0.2500-0.5000 (  6838 PWs)   bands (ev):

   -23.8053 -23.8053 -23.7945 -23.7945 -10.7452 -10.7452 -10.7224 -10.7224
    -7.3328  -7.3328  -7.2629  -7.2629  -7.1698  -7.1698  -7.1522  -7.1522
    -6.4641  -6.4641  -6.3372  -6.3372   0.8257   0.8259   0.9947   0.9953

          k = 0.0000 0.3750 0.3750 (  6838 PWs)   bands (ev):

   -23.8083 -23.7993 -23.7980 -23.7925 -10.7447 -10.7366 -10.7346 -10.7210
    -7.3444  -7.3148  -7.3019  -7.2501  -7.1810  -7.1676  -7.1372  -7.1292
    -6.4892  -6.3867  -6.3830  -6.3431   0.8361   0.9079   0.9118   1.0351

          k = 0.0000 0.3750-0.5000 (  6838 PWs)   bands (ev):

   -23.8021 -23.8021 -23.7967 -23.7967 -10.7419 -10.7419 -10.7270 -10.7270
    -7.3354  -7.3354  -7.2889  -7.2889  -7.1588  -7.1588  -7.1468  -7.1468
    -6.4317  -6.4317  -6.3648  -6.3648   0.8959   0.8960   1.0113   1.0119

          k = 0.0000-0.5000-0.5000 (  6872 PWs)   bands (ev):

   -23.8020 -23.8020 -23.8020 -23.8020 -10.7376 -10.7376 -10.7376 -10.7376
    -7.3332  -7.3332  -7.3332  -7.3332  -7.1636  -7.1636  -7.1636  -7.1636
    -6.4043  -6.4043  -6.4043  -6.4043   0.9687   0.9688   0.9690   0.9700

          k = 0.1250 0.1250 0.1250 (  6847 PWs)   bands (ev):

   -23.8212 -23.7952 -23.7952 -23.7946 -10.7460 -10.7460 -10.7455 -10.6995
    -7.3338  -7.3002  -7.3002  -7.2137  -7.2137  -7.1942  -7.1131  -7.1131
    -6.7120  -6.3317  -6.3317  -6.3317   0.6560   0.6630   0.6630   1.1067

          k = 0.1250 0.1250 0.2500 (  6838 PWs)   bands (ev):

   -23.8188 -23.7968 -23.7949 -23.7912 -10.7465 -10.7455 -10.7391 -10.7030
    -7.3419  -7.2987  -7.2684  -7.2266  -7.2164  -7.1979  -7.1333  -7.1197
    -6.6436  -6.3585  -6.3312  -6.3210   0.6928   0.7181   0.7522   1.0908

          k = 0.1250 0.1250 0.3750 (  6817 PWs)   bands (ev):

   -23.8123 -23.7975 -23.7921 -23.7906 -10.7456 -10.7450 -10.7274 -10.7086
    -7.3397  -7.3101  -7.2499  -7.2312  -7.2072  -7.1769  -7.1470  -7.1197
    -6.5523  -6.4026  -6.3221  -6.3153   0.7572   0.7800   0.8664   1.0636

          k = 0.1250 0.1250-0.5000 (  6838 PWs)   bands (ev):

   -23.8064 -23.8064 -23.7937 -23.7937 -10.7479 -10.7479 -10.7190 -10.7190
    -7.3400  -7.3400  -7.2478  -7.2478  -7.1902  -7.1902  -7.1468  -7.1468
    -6.4728  -6.4728  -6.3263  -6.3263   0.7921   0.7926   0.9792   0.9795

          k = 0.1250 0.2500 0.2500 (  6839 PWs)   bands (ev):

   -23.8173 -23.7976 -23.7951 -23.7915 -10.7463 -10.7409 -10.7403 -10.7086
    -7.3522  -7.2939  -7.2707  -7.2471  -7.2094  -7.1921  -7.1294  -7.1217
    -6.6041  -6.3581  -6.3499  -6.3252   0.7392   0.7910   0.7975   1.0703

          k = 0.1250 0.2500 0.3750 (  6835 PWs)   bands (ev):

   -23.8123 -23.7994 -23.7954 -23.7914 -10.7462 -10.7432 -10.7328 -10.7134
    -7.3499  -7.3114  -7.2796  -7.2439  -7.1873  -7.1688  -7.1402  -7.1355
    -6.5315  -6.4008  -6.3484  -6.3293   0.7929   0.8341   0.8882   1.0527

          k = 0.1250 0.2500-0.5000 (  6838 PWs)   bands (ev):

   -23.8059 -23.8059 -23.7950 -23.7950 -10.7450 -10.7450 -10.7235 -10.7235
    -7.3369  -7.3369  -7.2576  -7.2576  -7.1714  -7.1714  -7.1474  -7.1474
    -6.4594  -6.4594  -6.3440  -6.3440   0.8402   0.8402   0.9978   0.9978

          k = 0.1250 0.3750 0.3750 (  6848 PWs)   bands (ev):

   -23.8096 -23.7989 -23.7976 -23.7947 -10.7452 -10.7383 -10.7368 -10.7223
    -7.3508  -7.3175  -7.3051  -7.2624  -7.1844  -7.1676  -7.1395  -7.1336
    -6.4901  -6.3918  -6.3856  -6.3534   0.8483   0.9127   0.9257   1.0352

          k = 0.1250 0.3750-0.5000 (  6824 PWs)   bands (ev):

   -23.8022 -23.8022 -23.7936 -23.7936 -10.7395 -10.7395 -10.7281 -10.7281
    -7.3279  -7.3279  -7.2838  -7.2838  -7.1473  -7.1473  -7.1387  -7.1387
    -6.4311  -6.4311  -6.3632  -6.3632   0.9101   0.9101   1.0178   1.0178

          k = 0.1250-0.5000-0.5000 (  6848 PWs)   bands (ev):

   -23.7992 -23.7992 -23.7992 -23.7992 -10.7360 -10.7360 -10.7360 -10.7360
    -7.3211  -7.3211  -7.3211  -7.3211  -7.1471  -7.1471  -7.1471  -7.1471
    -6.4040  -6.4040  -6.4040  -6.4040   0.9707   0.9707   0.9707   0.9707

          k = 0.2500 0.2500 0.2500 (  6809 PWs)   bands (ev):

   -23.8109 -23.7935 -23.7917 -23.7917 -10.7402 -10.7402 -10.7389 -10.7113
    -7.3515  -7.2758  -7.2758  -7.2561  -7.1816  -7.1816  -7.1184  -7.1184
    -6.5586  -6.3461  -6.3461  -6.3359   0.8067   0.8475   0.8475   1.0723

          k = 0.2500 0.2500 0.3750 (  6844 PWs)   bands (ev):

   -23.8099 -23.8011 -23.7968 -23.7951 -10.7451 -10.7432 -10.7362 -10.7188
    -7.3606  -7.3172  -7.2757  -7.2640  -7.1872  -7.1647  -7.1342  -7.1220
    -6.5132  -6.4030  -6.3608  -6.3528   0.8308   0.8802   0.9192   1.0350

          k = 0.2500 0.2500-0.5000 (  6834 PWs)   bands (ev):

   -23.8045 -23.8045 -23.7951 -23.7951 -10.7432 -10.7432 -10.7272 -10.7272
    -7.3380  -7.3380  -7.2669  -7.2669  -7.1653  -7.1653  -7.1256  -7.1256
    -6.4487  -6.4487  -6.3572  -6.3572   0.8790   0.8790   1.0103   1.0176

          k = 0.2500 0.3750 0.3750 (  6855 PWs)   bands (ev):

   -23.8085 -23.8006 -23.7998 -23.7969 -10.7442 -10.7406 -10.7385 -10.7258
    -7.3565  -7.3139  -7.3037  -7.2811  -7.1698  -7.1583  -7.1297  -7.1256
    -6.4858  -6.4028  -6.3958  -6.3763   0.8763   0.9360   0.9496   1.0118

          k = 0.2500 0.3750-0.5000 (  6852 PWs)   bands (ev):

   -23.8040 -23.8040 -23.7975 -23.7975 -10.7425 -10.7425 -10.7323 -10.7323
    -7.3373  -7.3373  -7.2893  -7.2893  -7.1525  -7.1525  -7.1297  -7.1297
    -6.4399  -6.4399  -6.3865  -6.3865   0.9220   0.9222   1.0000   1.0003

          k = 0.2500-0.5000-0.5000 (  6860 PWs)   bands (ev):

   -23.8005 -23.8005 -23.8005 -23.8005 -10.7387 -10.7387 -10.7387 -10.7387
    -7.3208  -7.3208  -7.3208  -7.3208  -7.1400  -7.1400  -7.1400  -7.1400
    -6.4176  -6.4176  -6.4176  -6.4176   0.9660   0.9660   0.9663   0.9666

          k = 0.3750 0.3750 0.3750 (  6839 PWs)   bands (ev):

   -23.8064 -23.8013 -23.7962 -23.7962 -10.7398 -10.7385 -10.7385 -10.7300
    -7.3431  -7.3094  -7.2948  -7.2948  -7.1451  -7.1451  -7.1125  -7.1125
    -6.4705  -6.4086  -6.3998  -6.3998   0.9248   0.9740   0.9742   0.9906

          k = 0.3750 0.3750-0.5000 (  6854 PWs)   bands (ev):

   -23.8027 -23.8027 -23.7991 -23.7991 -10.7413 -10.7413 -10.7356 -10.7356
    -7.3289  -7.3289  -7.3043  -7.3043  -7.1399  -7.1399  -7.1195  -7.1195
    -6.4420  -6.4420  -6.4133  -6.4133   0.9459   0.9459   0.9873   0.9873

          k = 0.3750-0.5000-0.5000 (  6844 PWs)   bands (ev):

   -23.8000 -23.8000 -23.8000 -23.8000 -10.7382 -10.7382 -10.7382 -10.7382
    -7.3160  -7.3160  -7.3160  -7.3160  -7.1188  -7.1188  -7.1188  -7.1188
    -6.4291  -6.4291  -6.4291  -6.4291   0.9687   0.9687   0.9691   0.9698

          k =-0.5000-0.5000-0.5000 (  6776 PWs)   bands (ev):

   -23.7916 -23.7916 -23.7916 -23.7916 -10.7337 -10.7337 -10.7337 -10.7337
    -7.2936  -7.2936  -7.2936  -7.2936  -7.0880  -7.0880  -7.0880  -7.0880
    -6.4117  -6.4117  -6.4117  -6.4117   0.9950   0.9950   0.9950   0.9951

          k = 0.0000 0.2500 0.1250 (  6837 PWs)   bands (ev):

   -23.8195 -23.7965 -23.7928 -23.7912 -10.7475 -10.7456 -10.7388 -10.7012
    -7.3265  -7.3193  -7.2673  -7.2240  -7.2149  -7.2053  -7.1401  -7.1156
    -6.6599  -6.3576  -6.3233  -6.3154   0.6749   0.7030   0.7382   1.0922

          k = 0.0000 0.3750 0.1250 (  6815 PWs)   bands (ev):

   -23.8119 -23.7978 -23.7915 -23.7910 -10.7477 -10.7442 -10.7267 -10.7057
    -7.3299  -7.3185  -7.2427  -7.2226  -7.2192  -7.1820  -7.1492  -7.1149
    -6.5589  -6.4047  -6.3163  -6.3128   0.7382   0.7610   0.8618   1.0630

          k = 0.0000-0.5000 0.1250 (  6842 PWs)   bands (ev):

   -23.8090 -23.8090 -23.7926 -23.7926 -10.7476 -10.7476 -10.7189 -10.7189
    -7.3340  -7.3340  -7.2475  -7.2475  -7.2047  -7.2047  -7.1464  -7.1464
    -6.4815  -6.4815  -6.3204  -6.3204   0.7709   0.7710   0.9701   0.9703

          k = 0.0000 0.3750 0.2500 (  6826 PWs)   bands (ev):

   -23.8108 -23.7991 -23.7935 -23.7916 -10.7460 -10.7407 -10.7304 -10.7131
    -7.3380  -7.3232  -7.2539  -7.2258  -7.2085  -7.1897  -7.1332  -7.1190
    -6.5321  -6.4004  -6.3422  -6.3246   0.7846   0.8162   0.8838   1.0589

          k = 0.0000-0.5000 0.2500 (  6838 PWs)   bands (ev):

   -23.8057 -23.8057 -23.7940 -23.7940 -10.7450 -10.7450 -10.7225 -10.7225
    -7.3398  -7.3398  -7.2466  -7.2466  -7.2044  -7.2044  -7.1312  -7.1312
    -6.4600  -6.4600  -6.3362  -6.3362   0.8270   0.8270   0.9899   0.9899

          k = 0.0000-0.5000 0.3750 (  6838 PWs)   bands (ev):

   -23.8022 -23.8022 -23.7965 -23.7965 -10.7407 -10.7407 -10.7284 -10.7284
    -7.3392  -7.3392  -7.2843  -7.2843  -7.1744  -7.1744  -7.1296  -7.1296
    -6.4329  -6.4329  -6.3663  -6.3663   0.9014   0.9014   1.0097   1.0103

          k =-0.1250 0.3750 0.2500 (  6835 PWs)   bands (ev):

   -23.8119 -23.8007 -23.7945 -23.7914 -10.7457 -10.7421 -10.7331 -10.7147
    -7.3483  -7.3176  -7.2689  -7.2446  -7.1994  -7.1781  -7.1407  -7.1204
    -6.5310  -6.4016  -6.3458  -6.3306   0.7968   0.8404   0.8944   1.0460

          k =-0.1250-0.5000 0.2500 (  6838 PWs)   bands (ev):

   -23.8072 -23.8072 -23.7937 -23.7937 -10.7453 -10.7453 -10.7234 -10.7234
    -7.3425  -7.3425  -7.2522  -7.2522  -7.1900  -7.1900  -7.1290  -7.1290
    -6.4620  -6.4620  -6.3408  -6.3408   0.8447   0.8447   0.9933   0.9943

          k =-0.1250-0.5000 0.3750 (  6824 PWs)   bands (ev):

   -23.8028 -23.8028 -23.7929 -23.7929 -10.7391 -10.7391 -10.7284 -10.7284
    -7.3301  -7.3301  -7.2773  -7.2773  -7.1661  -7.1661  -7.1234  -7.1234
    -6.4326  -6.4326  -6.3629  -6.3629   0.9132   0.9132   1.0136   1.0137

          k =-0.2500-0.5000 0.3750 (  6852 PWs)   bands (ev):

   -23.8035 -23.8035 -23.7980 -23.7980 -10.7424 -10.7424 -10.7327 -10.7327
    -7.3356  -7.3356  -7.2943  -7.2943  -7.1547  -7.1547  -7.1238  -7.1238
    -6.4391  -6.4391  -6.3875  -6.3875   0.9216   0.9216   1.0007   1.0010

     the Fermi energy is    -5.1012 ev

!    total energy              =    -224.29631839 Ry
     Harris-Foulkes estimate   =    -224.29631839 Ry
     estimated scf accuracy    <          3.7E-09 Ry

     total all-electron energy =      -224.296318 Ry

     The total energy is the sum of the following terms:

     one-electron contribution =    -130.18878080 Ry
     hartree contribution      =      75.17341840 Ry
     xc contribution           =     -39.05413889 Ry
     ewald contribution        =     -61.64225112 Ry
     one-center paw contrib.   =     -68.58456599 Ry
     smearing contrib. (-TS)   =       0.00000000 Ry

     convergence has been achieved in   6 iterations

     Forces acting on atoms (cartesian axes, Ry/au):

     atom    1 type  1   force =    -0.15015884   -0.15015884   -0.15015884
     atom    2 type  1   force =     0.15015884    0.15015884   -0.15015884
     atom    3 type  1   force =     0.15015884   -0.15015884    0.15015884
     atom    4 type  1   force =    -0.15015884    0.15015884    0.15015884
     atom    5 type  1   force =     0.15015884    0.15015884    0.15015884
     atom    6 type  1   force =    -0.15015884   -0.15015884    0.15015884
     atom    7 type  1   force =    -0.15015884    0.15015884   -0.15015884
     atom    8 type  1   force =     0.15015884   -0.15015884   -0.15015884

     Total force =     0.735625     Total SCF correction =     0.000021

     number of scf cycles    =   2
     number of bfgs steps    =   1

     energy   old            =    -224.3483436557 Ry
     energy   new            =    -224.2963183882 Ry

     CASE: energy  _new > energy  _old

     new trust radius        =       0.0091760478 bohr
     new conv_thr            =       0.0000000100 Ry


ATOMIC_POSITIONS (crystal)
N        0.552342892   0.552342892   0.552342892
N        0.947657108   0.447657108   0.052342892
N        0.447657108   0.052342892   0.947657108
N        0.052342892   0.947657108   0.447657108
N        0.447657108   0.447657108   0.447657108
N        0.052342892   0.552342892   0.947657108
N        0.552342892   0.947657108   0.052342892
N        0.947657108   0.052342892   0.552342892



     Writing output data file relax.save/
     NEW-OLD atomic charge density approx. for the potential

     total cpu time spent up to now is       49.9 secs

     Self-consistent Calculation

     iteration #  1     ecut=    40.00 Ry     beta= 0.70
     Davidson diagonalization with overlap
     ethr =  1.00E-06,  avg # of iterations =  5.0

     total cpu time spent up to now is       56.8 secs

     total energy              =    -224.34525498 Ry
     Harris-Foulkes estimate   =    -224.39225023 Ry
     estimated scf accuracy    <       0.01738161 Ry

     iteration #  2     ecut=    40.00 Ry     beta= 0.70
     Davidson diagonalization with overlap
     ethr =  4.35E-05,  avg # of iterations =  2.0

     total cpu time spent up to now is       60.9 secs

     total energy              =    -224.34971621 Ry
     Harris-Foulkes estimate   =    -224.35082352 Ry
     estimated scf accuracy    <       0.00198103 Ry

     iteration #  3     ecut=    40.00 Ry     beta= 0.70
     Davidson diagonalization with overlap
     ethr =  4.95E-06,  avg # of iterations =  2.0

     total cpu time spent up to now is       64.3 secs

     total energy              =    -224.35012067 Ry
     Harris-Foulkes estimate   =    -224.35011292 Ry
     estimated scf accuracy    <       0.00003314 Ry

     iteration #  4     ecut=    40.00 Ry     beta= 0.70
     Davidson diagonalization with overlap
     ethr =  8.28E-08,  avg # of iterations =  2.0

     total cpu time spent up to now is       67.5 secs

     total energy              =    -224.35012304 Ry
     Harris-Foulkes estimate   =    -224.35012300 Ry
     estimated scf accuracy    <       0.00000042 Ry

     iteration #  5     ecut=    40.00 Ry     beta= 0.70
     Davidson diagonalization with overlap
     ethr =  1.04E-09,  avg # of iterations =  4.1

     total cpu time spent up to now is       72.8 secs

     total energy              =    -224.35012340 Ry
     Harris-Foulkes estimate   =    -224.35012340 Ry
     estimated scf accuracy    <       0.00000002 Ry

     iteration #  6     ecut=    40.00 Ry     beta= 0.70
     Davidson diagonalization with overlap
     ethr =  4.33E-11,  avg # of iterations =  2.0

     total cpu time spent up to now is       75.6 secs

     End of self-consistent calculation

          k = 0.0000 0.0000 0.0000 (  6859 PWs)   bands (ev):

   -24.5758 -24.5484 -24.5484 -24.5484 -10.4027 -10.4027 -10.4027 -10.3428
    -7.6894  -7.6894  -7.6894  -7.5766  -7.5766  -7.4917  -7.4917  -7.4917
    -6.9469  -6.4503  -6.4503  -6.4503   1.0331   1.0331   1.0332   1.6107

          k = 0.0000 0.0000 0.1250 (  6867 PWs)   bands (ev):

   -24.5733 -24.5514 -24.5497 -24.5438 -10.4034 -10.4013 -10.4005 -10.3518
    -7.6933  -7.6827  -7.6815  -7.6034  -7.5983  -7.5229  -7.5060  -7.5047
    -6.9117  -6.4678  -6.4537  -6.4397   1.0435   1.0503   1.0637   1.6112

          k = 0.0000 0.0000 0.2500 (  6836 PWs)   bands (ev):

   -24.5645 -24.5467 -24.5428 -24.5378 -10.4020 -10.4013 -10.3925 -10.3510
    -7.6936  -7.6670  -7.6620  -7.6033  -7.5858  -7.5620  -7.5209  -7.5112
    -6.8245  -6.4887  -6.4352  -6.4224   1.1114   1.1119   1.1727   1.5967

          k = 0.0000 0.0000 0.3750 (  6860 PWs)   bands (ev):

   -24.5622 -24.5483 -24.5416 -24.5412 -10.4065 -10.4057 -10.3845 -10.3630
    -7.7142  -7.6761  -7.6513  -7.6212  -7.6028  -7.5740  -7.5696  -7.5318
    -6.7200  -6.5502  -6.4320  -6.4318   1.1557   1.1720   1.3059   1.5574

          k = 0.0000 0.0000-0.5000 (  6848 PWs)   bands (ev):

   -24.5542 -24.5542 -24.5427 -24.5427 -10.4041 -10.4041 -10.3719 -10.3719
    -7.6901  -7.6901  -7.6414  -7.6414  -7.5755  -7.5755  -7.5556  -7.5556
    -6.6247  -6.6247  -6.4326  -6.4326   1.1978   1.1979   1.4625   1.4629

          k = 0.0000 0.1250 0.1250 (  6855 PWs)   bands (ev):

   -24.5662 -24.5457 -24.5434 -24.5431 -10.4040 -10.4019 -10.3998 -10.3507
    -7.6940  -7.6887  -7.6729  -7.6017  -7.5970  -7.5485  -7.5063  -7.4954
    -6.8746  -6.4543  -6.4492  -6.4392   1.0669   1.0848   1.0916   1.6121

          k = 0.0000 0.1250 0.2500 (  6837 PWs)   bands (ev):

   -24.5651 -24.5418 -24.5417 -24.5382 -10.4010 -10.4002 -10.3935 -10.3560
    -7.6974  -7.6650  -7.6624  -7.6096  -7.5854  -7.5809  -7.5183  -7.5150
    -6.8059  -6.4769  -6.4395  -6.4272   1.1191   1.1488   1.2001   1.5896

          k = 0.0000 0.1250 0.3750 (  6815 PWs)   bands (ev):

   -24.5581 -24.5456 -24.5368 -24.5359 -10.4015 -10.3995 -10.3801 -10.3585
    -7.6957  -7.6553  -7.6404  -7.6117  -7.5810  -7.5582  -7.5323  -7.5202
    -6.7052  -6.5382  -6.4269  -6.4225   1.1925   1.2163   1.3216   1.5660

          k = 0.0000 0.1250-0.5000 (  6842 PWs)   bands (ev):

   -24.5549 -24.5549 -24.5399 -24.5399 -10.4027 -10.4027 -10.3723 -10.3723
    -7.6973  -7.6973  -7.6248  -7.6248  -7.5688  -7.5688  -7.5495  -7.5495
    -6.6207  -6.6207  -6.4339  -6.4339   1.2268   1.2268   1.4709   1.4716

          k = 0.0000 0.2500 0.2500 (  6849 PWs)   bands (ev):

   -24.5611 -24.5438 -24.5416 -24.5397 -10.4046 -10.3960 -10.3952 -10.3624
    -7.7072  -7.6853  -7.6457  -7.6058  -7.5982  -7.5897  -7.5307  -7.5205
    -6.7542  -6.4759  -6.4729  -6.4330   1.1754   1.2328   1.2337   1.5731

          k = 0.0000 0.2500 0.3750 (  6826 PWs)   bands (ev):

   -24.5572 -24.5454 -24.5408 -24.5349 -10.4017 -10.3964 -10.3837 -10.3664
    -7.7068  -7.6602  -7.6550  -7.6045  -7.5763  -7.5555  -7.5241  -7.5236
    -6.6738  -6.5293  -6.4606  -6.4325   1.2371   1.2846   1.3555   1.5569

          k = 0.0000 0.2500-0.5000 (  6838 PWs)   bands (ev):

   -24.5505 -24.5505 -24.5414 -24.5414 -10.4007 -10.4007 -10.3762 -10.3762
    -7.6934  -7.6934  -7.6363  -7.6363  -7.5564  -7.5564  -7.5402  -7.5402
    -6.5968  -6.5968  -6.4539  -6.4539   1.2885   1.2885   1.4878   1.4884

          k = 0.0000 0.3750 0.3750 (  6838 PWs)   bands (ev):

   -24.5537 -24.5453 -24.5437 -24.5389 -10.4001 -10.3911 -10.3900 -10.3751
    -7.7059  -7.6838  -7.6660  -7.6231  -7.5661  -7.5550  -7.5256  -7.5166
    -6.6234  -6.5100  -6.5063  -6.4600   1.3045   1.3877   1.3884   1.5367

          k = 0.0000 0.3750-0.5000 (  6838 PWs)   bands (ev):

   -24.5472 -24.5472 -24.5427 -24.5427 -10.3976 -10.3976 -10.3816 -10.3816
    -7.6958  -7.6958  -7.6595  -7.6595  -7.5462  -7.5462  -7.5345  -7.5345
    -6.5599  -6.5599  -6.4847  -6.4847   1.3672   1.3673   1.5044   1.5049

          k = 0.0000-0.5000-0.5000 (  6872 PWs)   bands (ev):

   -24.5478 -24.5478 -24.5478 -24.5478 -10.3937 -10.3937 -10.3937 -10.3937
    -7.6992  -7.6992  -7.6992  -7.6992  -7.5518  -7.5518  -7.5518  -7.5518
    -6.5275  -6.5275  -6.5275  -6.5275   1.4517   1.4517   1.4518   1.4529

          k = 0.1250 0.1250 0.1250 (  6847 PWs)   bands (ev):

   -24.5643 -24.5444 -24.5444 -24.5423 -10.4004 -10.4004 -10.3994 -10.3537
    -7.7008  -7.6725  -7.6725  -7.5969  -7.5969  -7.5670  -7.5028  -7.5028
    -6.8500  -6.4498  -6.4498  -6.4457   1.0997   1.1126   1.1126   1.6127

          k = 0.1250 0.1250 0.2500 (  6838 PWs)   bands (ev):

   -24.5638 -24.5447 -24.5432 -24.5371 -10.4013 -10.3995 -10.3929 -10.3576
    -7.7051  -7.6669  -7.6429  -7.6009  -7.5936  -7.5812  -7.5217  -7.5089
    -6.7879  -6.4796  -6.4469  -6.4346   1.1428   1.1732   1.2103   1.5936

          k = 0.1250 0.1250 0.3750 (  6817 PWs)   bands (ev):

   -24.5580 -24.5431 -24.5384 -24.5372 -10.4001 -10.3995 -10.3804 -10.3627
    -7.7018  -7.6712  -7.6235  -7.6079  -7.5867  -7.5619  -7.5333  -7.5084
    -6.6985  -6.5298  -6.4362  -6.4306   1.2125   1.2388   1.3417   1.5640

          k = 0.1250 0.1250-0.5000 (  6838 PWs)   bands (ev):

   -24.5524 -24.5524 -24.5402 -24.5402 -10.4031 -10.4031 -10.3726 -10.3726
    -7.6984  -7.6984  -7.6247  -7.6247  -7.5735  -7.5735  -7.5343  -7.5343
    -6.6112  -6.6112  -6.4407  -6.4407   1.2515   1.2517   1.4684   1.4686

          k = 0.1250 0.2500 0.2500 (  6839 PWs)   bands (ev):

   -24.5619 -24.5455 -24.5422 -24.5384 -10.4012 -10.3950 -10.3946 -10.3629
    -7.7125  -7.6629  -7.6417  -7.6203  -7.5901  -7.5762  -7.5184  -7.5107
    -6.7449  -6.4794  -6.4686  -6.4419   1.1935   1.2531   1.2607   1.5706

          k = 0.1250 0.2500 0.3750 (  6835 PWs)   bands (ev):

   -24.5580 -24.5450 -24.5426 -24.5375 -10.4020 -10.3978 -10.3868 -10.3675
    -7.7101  -7.6745  -7.6496  -7.6211  -7.5691  -7.5536  -7.5305  -7.5228
    -6.6714  -6.5247  -6.4668  -6.4457   1.2524   1.3008   1.3675   1.5523

          k = 0.1250 0.2500-0.5000 (  6838 PWs)   bands (ev):

   -24.5518 -24.5518 -24.5418 -24.5418 -10.4001 -10.4001 -10.3772 -10.3772
    -7.6972  -7.6972  -7.6308  -7.6308  -7.5560  -7.5560  -7.5361  -7.5361
    -6.5932  -6.5932  -6.4615  -6.4615   1.3049   1.3050   1.4913   1.4913

          k = 0.1250 0.3750 0.3750 (  6848 PWs)   bands (ev):

   -24.5556 -24.5451 -24.5434 -24.5413 -10.4012 -10.3930 -10.3923 -10.3766
    -7.7128  -7.6856  -7.6711  -7.6374  -7.5692  -7.5543  -7.5300  -7.5221
    -6.6245  -6.5128  -6.5074  -6.4697   1.3182   1.3914   1.4077   1.5342

          k = 0.1250 0.3750-0.5000 (  6824 PWs)   bands (ev):

   -24.5474 -24.5474 -24.5394 -24.5394 -10.3943 -10.3943 -10.3830 -10.3830
    -7.6899  -7.6899  -7.6556  -7.6556  -7.5343  -7.5343  -7.5279  -7.5279
    -6.5585  -6.5585  -6.4826  -6.4826   1.3845   1.3845   1.5110   1.5110

          k = 0.1250-0.5000-0.5000 (  6848 PWs)   bands (ev):

   -24.5444 -24.5444 -24.5444 -24.5444 -10.3919 -10.3919 -10.3919 -10.3919
    -7.6881  -7.6881  -7.6881  -7.6881  -7.5368  -7.5368  -7.5368  -7.5368
    -6.5243  -6.5243  -6.5243  -6.5243   1.4557   1.4557   1.4557   1.4557

          k = 0.2500 0.2500 0.2500 (  6809 PWs)   bands (ev):

   -24.5555 -24.5413 -24.5381 -24.5381 -10.3946 -10.3946 -10.3931 -10.3645
    -7.7104  -7.6466  -7.6466  -7.6221  -7.5638  -7.5638  -7.5085  -7.5085
    -6.6972  -6.4638  -6.4638  -6.4620   1.2639   1.3163   1.3163   1.5675

          k = 0.2500 0.2500 0.3750 (  6844 PWs)   bands (ev):

   -24.5557 -24.5477 -24.5445 -24.5418 -10.4000 -10.3988 -10.3902 -10.3725
    -7.7191  -7.6826  -7.6478  -7.6381  -7.5701  -7.5493  -7.5256  -7.5128
    -6.6480  -6.5267  -6.4797  -6.4728   1.2954   1.3535   1.4021   1.5303

          k = 0.2500 0.2500-0.5000 (  6834 PWs)   bands (ev):

   -24.5507 -24.5507 -24.5422 -24.5422 -10.3978 -10.3978 -10.3813 -10.3813
    -7.6976  -7.6976  -7.6415  -7.6415  -7.5496  -7.5496  -7.5170  -7.5170
    -6.5803  -6.5803  -6.4756  -6.4756   1.3504   1.3504   1.5054   1.5055

          k = 0.2500 0.3750 0.3750 (  6855 PWs)   bands (ev):

   -24.5547 -24.5470 -24.5461 -24.5436 -10.4002 -10.3955 -10.3943 -10.3799
    -7.7177  -7.6828  -7.6738  -7.6555  -7.5567  -7.5463  -7.5219  -7.5176
    -6.6144  -6.5219  -6.5162  -6.4935   1.3499   1.4195   1.4372   1.5065

          k = 0.2500 0.3750-0.5000 (  6852 PWs)   bands (ev):

   -24.5501 -24.5501 -24.5443 -24.5443 -10.3980 -10.3980 -10.3870 -10.3870
    -7.7012  -7.7012  -7.6634  -7.6634  -7.5415  -7.5415  -7.5213  -7.5213
    -6.5645  -6.5645  -6.5052  -6.5052   1.4011   1.4013   1.4935   1.4938

          k = 0.2500-0.5000-0.5000 (  6860 PWs)   bands (ev):

   -24.5467 -24.5467 -24.5467 -24.5467 -10.3945 -10.3945 -10.3945 -10.3945
    -7.6909  -7.6909  -7.6909  -7.6909  -7.5315  -7.5315  -7.5315  -7.5315
    -6.5362  -6.5362  -6.5362  -6.5362   1.4536   1.4536   1.4538   1.4541

          k = 0.3750 0.3750 0.3750 (  6839 PWs)   bands (ev):

   -24.5521 -24.5476 -24.5424 -24.5424 -10.3953 -10.3936 -10.3936 -10.3843
    -7.7071  -7.6794  -7.6686  -7.6686  -7.5356  -7.5356  -7.5072  -7.5072
    -6.5941  -6.5266  -6.5166  -6.5166   1.4041   1.4639   1.4640   1.4797

          k = 0.3750 0.3750-0.5000 (  6854 PWs)   bands (ev):

   -24.5490 -24.5490 -24.5450 -24.5450 -10.3974 -10.3974 -10.3906 -10.3906
    -7.6985  -7.6985  -7.6787  -7.6787  -7.5326  -7.5326  -7.5141  -7.5141
    -6.5602  -6.5602  -6.5272  -6.5272   1.4310   1.4310   1.4788   1.4788

          k = 0.3750-0.5000-0.5000 (  6844 PWs)   bands (ev):

   -24.5464 -24.5464 -24.5464 -24.5464 -10.3934 -10.3934 -10.3934 -10.3934
    -7.6891  -7.6891  -7.6891  -7.6891  -7.5135  -7.5135  -7.5135  -7.5135
    -6.5448  -6.5448  -6.5448  -6.5448   1.4574   1.4574   1.4578   1.4584

          k =-0.5000-0.5000-0.5000 (  6776 PWs)   bands (ev):

   -24.5370 -24.5370 -24.5370 -24.5370 -10.3883 -10.3883 -10.3883 -10.3883
    -7.6685  -7.6685  -7.6685  -7.6685  -7.4826  -7.4826  -7.4826  -7.4826
    -6.5256  -6.5256  -6.5256  -6.5256   1.4826   1.4826   1.4826   1.4828

          k = 0.0000 0.2500 0.1250 (  6837 PWs)   bands (ev):

   -24.5641 -24.5442 -24.5402 -24.5382 -10.4015 -10.4003 -10.3928 -10.3561
    -7.6913  -7.6856  -7.6426  -7.6055  -7.5894  -7.5854  -7.5283  -7.5047
    -6.8051  -6.4809  -6.4388  -6.4259   1.1244   1.1549   1.1936   1.5965

          k = 0.0000 0.3750 0.1250 (  6815 PWs)   bands (ev):

   -24.5572 -24.5435 -24.5381 -24.5377 -10.4013 -10.3994 -10.3803 -10.3589
    -7.6957  -7.6775  -7.6173  -7.6025  -7.5947  -7.5656  -7.5354  -7.5033
    -6.7055  -6.5345  -6.4304  -6.4252   1.1926   1.2167   1.3342   1.5647

          k = 0.0000-0.5000 0.1250 (  6842 PWs)   bands (ev):

   -24.5551 -24.5551 -24.5396 -24.5396 -10.4024 -10.4024 -10.3726 -10.3726
    -7.6924  -7.6924  -7.6247  -7.6247  -7.5878  -7.5878  -7.5337  -7.5337
    -6.6220  -6.6220  -6.4341  -6.4341   1.2297   1.2298   1.4579   1.4580

          k = 0.0000 0.3750 0.2500 (  6826 PWs)   bands (ev):

   -24.5559 -24.5449 -24.5390 -24.5383 -10.4009 -10.3956 -10.3843 -10.3671
    -7.6959  -7.6899  -7.6245  -7.6037  -7.5883  -7.5730  -7.5225  -7.5090
    -6.6722  -6.5272  -6.4571  -6.4395   1.2449   1.2825   1.3598   1.5594

          k = 0.0000-0.5000 0.2500 (  6838 PWs)   bands (ev):

   -24.5513 -24.5513 -24.5406 -24.5406 -10.4004 -10.4004 -10.3762 -10.3762
    -7.6990  -7.6990  -7.6217  -7.6217  -7.5864  -7.5864  -7.5206  -7.5206
    -6.5959  -6.5959  -6.4530  -6.4530   1.2920   1.2920   1.4793   1.4793

          k = 0.0000-0.5000 0.3750 (  6838 PWs)   bands (ev):

   -24.5470 -24.5470 -24.5429 -24.5429 -10.3968 -10.3968 -10.3825 -10.3825
    -7.7030  -7.7030  -7.6538  -7.6538  -7.5603  -7.5603  -7.5178  -7.5178
    -6.5600  -6.5600  -6.4858  -6.4858   1.3761   1.3762   1.4987   1.4992

          k =-0.1250 0.3750 0.2500 (  6835 PWs)   bands (ev):

   -24.5571 -24.5476 -24.5408 -24.5377 -10.4007 -10.3974 -10.3873 -10.3685
    -7.7073  -7.6835  -7.6400  -7.6202  -7.5803  -7.5617  -7.5297  -7.5094
    -6.6701  -6.5286  -6.4632  -6.4460   1.2584   1.3075   1.3723   1.5445

          k =-0.1250-0.5000 0.2500 (  6838 PWs)   bands (ev):

   -24.5534 -24.5534 -24.5403 -24.5403 -10.4003 -10.4003 -10.3772 -10.3772
    -7.7015  -7.7015  -7.6277  -7.6277  -7.5722  -7.5722  -7.5187  -7.5187
    -6.5968  -6.5968  -6.4576  -6.4576   1.3112   1.3112   1.4846   1.4855

          k =-0.1250-0.5000 0.3750 (  6824 PWs)   bands (ev):

   -24.5486 -24.5486 -24.5382 -24.5382 -10.3943 -10.3943 -10.3828 -10.3828
    -7.6934  -7.6934  -7.6481  -7.6481  -7.5531  -7.5531  -7.5125  -7.5125
    -6.5621  -6.5621  -6.4800  -6.4800   1.3909   1.3909   1.5029   1.5030

          k =-0.2500-0.5000 0.3750 (  6852 PWs)   bands (ev):

   -24.5498 -24.5498 -24.5446 -24.5446 -10.3982 -10.3982 -10.3871 -10.3871
    -7.6998  -7.6998  -7.6681  -7.6681  -7.5424  -7.5424  -7.5166  -7.5166
    -6.5640  -6.5640  -6.5059  -6.5059   1.4025   1.4025   1.4935   1.4937

     the Fermi energy is    -4.9072 ev

!    total energy              =    -224.35012340 Ry
     Harris-Foulkes estimate   =    -224.35012340 Ry
     estimated scf accuracy    <          3.0E-09 Ry

     total all-electron energy =      -224.350123 Ry

     The total energy is the sum of the following terms:

     one-electron contribution =    -136.46040194 Ry
     hartree contribution      =      78.20800961 Ry
     xc contribution           =     -39.47650915 Ry
     ewald contribution        =     -58.02175810 Ry
     one-center paw contrib.   =     -68.59946382 Ry
     smearing contrib. (-TS)   =       0.00000000 Ry

     convergence has been achieved in   6 iterations

     Forces acting on atoms (cartesian axes, Ry/au):

     atom    1 type  1   force =    -0.00400468   -0.00400468   -0.00400468
     atom    2 type  1   force =     0.00400468    0.00400468   -0.00400468
     atom    3 type  1   force =     0.00400468   -0.00400468    0.00400468
     atom    4 type  1   force =    -0.00400468    0.00400468    0.00400468
     atom    5 type  1   force =     0.00400468    0.00400468    0.00400468
     atom    6 type  1   force =    -0.00400468   -0.00400468    0.00400468
     atom    7 type  1   force =    -0.00400468    0.00400468   -0.00400468
     atom    8 type  1   force =     0.00400468   -0.00400468   -0.00400468

     Total force =     0.019619     Total SCF correction =     0.000003

     number of scf cycles    =   3
     number of bfgs steps    =   1

     energy   old            =    -224.3483436557 Ry
     energy   new            =    -224.3501233987 Ry

     CASE: energy  _new < energy  _old

     new trust radius        =       0.0010085199 bohr
     new conv_thr            =       0.0000000004 Ry


ATOMIC_POSITIONS (crystal)
N        0.552293116   0.552293116   0.552293116
N        0.947706884   0.447706884   0.052293116
N        0.447706884   0.052293116   0.947706884
N        0.052293116   0.947706884   0.447706884
N        0.447706884   0.447706884   0.447706884
N        0.052293116   0.552293116   0.947706884
N        0.552293116   0.947706884   0.052293116
N        0.947706884   0.052293116   0.552293116



     Writing output data file relax.save/
     NEW-OLD atomic charge density approx. for the potential

     total cpu time spent up to now is       76.2 secs

     Self-consistent Calculation

     iteration #  1     ecut=    40.00 Ry     beta= 0.70
     Davidson diagonalization with overlap
     ethr =  1.00E-06,  avg # of iterations =  2.0

     Threshold (ethr) on eigenvalues was too large:
     Diagonalizing with lowered threshold

     Davidson diagonalization with overlap
     ethr =  1.99E-08,  avg # of iterations =  1.0

     total cpu time spent up to now is       80.1 secs

     total energy              =    -224.35014995 Ry
     Harris-Foulkes estimate   =    -224.35074774 Ry
     estimated scf accuracy    <       0.00000860 Ry

     iteration #  2     ecut=    40.00 Ry     beta= 0.70
     Davidson diagonalization with overlap
     ethr =  2.15E-08,  avg # of iterations =  2.0

     total cpu time spent up to now is       82.4 secs

     total energy              =    -224.35015207 Ry
     Harris-Foulkes estimate   =    -224.35015262 Ry
     estimated scf accuracy    <       0.00000094 Ry

     iteration #  3     ecut=    40.00 Ry     beta= 0.70
     Davidson diagonalization with overlap
     ethr =  2.35E-09,  avg # of iterations =  2.0

     total cpu time spent up to now is       84.6 secs

     total energy              =    -224.35015225 Ry
     Harris-Foulkes estimate   =    -224.35015226 Ry
     estimated scf accuracy    <       0.00000002 Ry

     iteration #  4     ecut=    40.00 Ry     beta= 0.70
     Davidson diagonalization with overlap
     ethr =  4.14E-11,  avg # of iterations =  2.0

     total cpu time spent up to now is       86.5 secs

     End of self-consistent calculation

          k = 0.0000 0.0000 0.0000 (  6859 PWs)   bands (ev):

   -24.5917 -24.5645 -24.5645 -24.5645 -10.3952 -10.3952 -10.3952 -10.3352
    -7.6978  -7.6978  -7.6978  -7.5852  -7.5852  -7.5003  -7.5003  -7.5003
    -6.9491  -6.4525  -6.4525  -6.4525   1.0429   1.0429   1.0429   1.6221

          k = 0.0000 0.0000 0.1250 (  6867 PWs)   bands (ev):

   -24.5893 -24.5676 -24.5658 -24.5599 -10.3958 -10.3938 -10.3929 -10.3442
    -7.7016  -7.6911  -7.6899  -7.6120  -7.6069  -7.5315  -7.5148  -7.5134
    -6.9142  -6.4700  -6.4559  -6.4418   1.0534   1.0601   1.0736   1.6226

          k = 0.0000 0.0000 0.2500 (  6836 PWs)   bands (ev):

   -24.5805 -24.5628 -24.5589 -24.5539 -10.3944 -10.3937 -10.3849 -10.3434
    -7.7019  -7.6753  -7.6704  -7.6119  -7.5944  -7.5705  -7.5296  -7.5199
    -6.8271  -6.4909  -6.4374  -6.4244   1.1213   1.1219   1.1828   1.6081

          k = 0.0000 0.0000 0.3750 (  6860 PWs)   bands (ev):

   -24.5783 -24.5644 -24.5576 -24.5573 -10.3990 -10.3981 -10.3769 -10.3554
    -7.7225  -7.6843  -7.6597  -7.6297  -7.6113  -7.5826  -7.5783  -7.5406
    -6.7228  -6.5526  -6.4341  -6.4338   1.1658   1.1821   1.3164   1.5687

          k = 0.0000 0.0000-0.5000 (  6848 PWs)   bands (ev):

   -24.5703 -24.5703 -24.5588 -24.5588 -10.3965 -10.3965 -10.3643 -10.3643
    -7.6983  -7.6983  -7.6498  -7.6498  -7.5841  -7.5841  -7.5643  -7.5643
    -6.6274  -6.6274  -6.4347  -6.4347   1.2079   1.2080   1.4734   1.4737

          k = 0.0000 0.1250 0.1250 (  6855 PWs)   bands (ev):

   -24.5823 -24.5618 -24.5595 -24.5592 -10.3964 -10.3943 -10.3922 -10.3431
    -7.7024  -7.6970  -7.6814  -7.6103  -7.6056  -7.5571  -7.5150  -7.5041
    -6.8770  -6.4564  -6.4513  -6.4413   1.0768   1.0947   1.1016   1.6236

          k = 0.0000 0.1250 0.2500 (  6837 PWs)   bands (ev):

   -24.5811 -24.5579 -24.5579 -24.5543 -10.3934 -10.3926 -10.3859 -10.3484
    -7.7056  -7.6734  -7.6708  -7.6182  -7.5941  -7.5894  -7.5271  -7.5238
    -6.8085  -6.4791  -6.4416  -6.4293   1.1291   1.1589   1.2102   1.6009

          k = 0.0000 0.1250 0.3750 (  6815 PWs)   bands (ev):

   -24.5742 -24.5616 -24.5529 -24.5519 -10.3940 -10.3919 -10.3725 -10.3509
    -7.7039  -7.6635  -7.6488  -7.6202  -7.5896  -7.5668  -7.5410  -7.5289
    -6.7080  -6.5406  -6.4289  -6.4246   1.2026   1.2264   1.3321   1.5773

          k = 0.0000 0.1250-0.5000 (  6842 PWs)   bands (ev):

   -24.5709 -24.5709 -24.5560 -24.5560 -10.3951 -10.3951 -10.3648 -10.3648
    -7.7055  -7.7055  -7.6333  -7.6333  -7.5774  -7.5774  -7.5582  -7.5582
    -6.6233  -6.6233  -6.4359  -6.4359   1.2370   1.2370   1.4818   1.4825

          k = 0.0000 0.2500 0.2500 (  6849 PWs)   bands (ev):

   -24.5772 -24.5599 -24.5577 -24.5557 -10.3971 -10.3884 -10.3876 -10.3549
    -7.7154  -7.6936  -7.6541  -7.6144  -7.6067  -7.5984  -7.5395  -7.5293
    -6.7568  -6.4781  -6.4750  -6.4351   1.1855   1.2430   1.2440   1.5844

          k = 0.0000 0.2500 0.3750 (  6826 PWs)   bands (ev):

   -24.5732 -24.5614 -24.5568 -24.5509 -10.3941 -10.3888 -10.3761 -10.3588
    -7.7150  -7.6684  -7.6634  -7.6130  -7.5849  -7.5641  -7.5328  -7.5323
    -6.6764  -6.5315  -6.4628  -6.4346   1.2474   1.2950   1.3661   1.5681

          k = 0.0000 0.2500-0.5000 (  6838 PWs)   bands (ev):

   -24.5665 -24.5665 -24.5575 -24.5575 -10.3931 -10.3931 -10.3686 -10.3686
    -7.7016  -7.7016  -7.6447  -7.6447  -7.5651  -7.5651  -7.5489  -7.5489
    -6.5992  -6.5992  -6.4560  -6.4560   1.2988   1.2989   1.4988   1.4994

          k = 0.0000 0.3750 0.3750 (  6838 PWs)   bands (ev):

   -24.5698 -24.5614 -24.5598 -24.5549 -10.3926 -10.3836 -10.3824 -10.3675
    -7.7142  -7.6922  -7.6742  -7.6316  -7.5748  -7.5637  -7.5343  -7.5253
    -6.6258  -6.5123  -6.5085  -6.4621   1.3150   1.3983   1.3991   1.5480

          k = 0.0000 0.3750-0.5000 (  6838 PWs)   bands (ev):

   -24.5633 -24.5633 -24.5587 -24.5587 -10.3900 -10.3900 -10.3740 -10.3740
    -7.7040  -7.7040  -7.6679  -7.6679  -7.5549  -7.5549  -7.5432  -7.5432
    -6.5623  -6.5623  -6.4869  -6.4869   1.3778   1.3779   1.5154   1.5159

          k = 0.0000-0.5000-0.5000 (  6872 PWs)   bands (ev):

   -24.5639 -24.5639 -24.5639 -24.5639 -10.3861 -10.3861 -10.3861 -10.3861
    -7.7075  -7.7075  -7.7075  -7.7075  -7.5606  -7.5606  -7.5606  -7.5606
    -6.5297  -6.5297  -6.5297  -6.5297   1.4625   1.4625   1.4626   1.4636

          k = 0.1250 0.1250 0.1250 (  6847 PWs)   bands (ev):

   -24.5803 -24.5605 -24.5605 -24.5584 -10.3928 -10.3928 -10.3918 -10.3461
    -7.7091  -7.6809  -7.6809  -7.6055  -7.6055  -7.5755  -7.5115  -7.5115
    -6.8525  -6.4520  -6.4520  -6.4478   1.1096   1.1226   1.1226   1.6241

          k = 0.1250 0.1250 0.2500 (  6838 PWs)   bands (ev):

   -24.5799 -24.5608 -24.5593 -24.5531 -10.3938 -10.3920 -10.3853 -10.3500
    -7.7133  -7.6753  -7.6514  -7.6094  -7.6020  -7.5898  -7.5305  -7.5176
    -6.7905  -6.4818  -6.4491  -6.4367   1.1528   1.1833   1.2205   1.6049

          k = 0.1250 0.1250 0.3750 (  6817 PWs)   bands (ev):

   -24.5741 -24.5592 -24.5545 -24.5533 -10.3926 -10.3919 -10.3728 -10.3551
    -7.7100  -7.6794  -7.6319  -7.6164  -7.5953  -7.5705  -7.5420  -7.5171
    -6.7012  -6.5321  -6.4383  -6.4327   1.2226   1.2490   1.3522   1.5752

          k = 0.1250 0.1250-0.5000 (  6838 PWs)   bands (ev):

   -24.5685 -24.5685 -24.5563 -24.5563 -10.3955 -10.3955 -10.3650 -10.3650
    -7.7066  -7.7066  -7.6332  -7.6332  -7.5821  -7.5821  -7.5430  -7.5430
    -6.6138  -6.6138  -6.4428  -6.4428   1.2617   1.2619   1.4794   1.4796

          k = 0.1250 0.2500 0.2500 (  6839 PWs)   bands (ev):

   -24.5779 -24.5616 -24.5582 -24.5545 -10.3937 -10.3874 -10.3870 -10.3553
    -7.7207  -7.6713  -7.6501  -7.6287  -7.5987  -7.5848  -7.5271  -7.5194
    -6.7475  -6.4816  -6.4707  -6.4440   1.2036   1.2634   1.2710   1.5818

          k = 0.1250 0.2500 0.3750 (  6835 PWs)   bands (ev):

   -24.5741 -24.5611 -24.5587 -24.5536 -10.3945 -10.3902 -10.3792 -10.3599
    -7.7183  -7.6827  -7.6580  -7.6296  -7.5777  -7.5623  -7.5392  -7.5315
    -6.6739  -6.5269  -6.4690  -6.4478   1.2627   1.3112   1.3782   1.5635

          k = 0.1250 0.2500-0.5000 (  6838 PWs)   bands (ev):

   -24.5679 -24.5679 -24.5579 -24.5579 -10.3926 -10.3926 -10.3696 -10.3696
    -7.7054  -7.7054  -7.6392  -7.6392  -7.5646  -7.5646  -7.5448  -7.5448
    -6.5957  -6.5957  -6.4636  -6.4636   1.3153   1.3153   1.5024   1.5024

          k = 0.1250 0.3750 0.3750 (  6848 PWs)   bands (ev):

   -24.5716 -24.5612 -24.5594 -24.5574 -10.3937 -10.3855 -10.3847 -10.3690
    -7.7210  -7.6939  -7.6794  -7.6458  -7.5778  -7.5630  -7.5387  -7.5308
    -6.6270  -6.5150  -6.5097  -6.4718   1.3287   1.4021   1.4185   1.5454

          k = 0.1250 0.3750-0.5000 (  6824 PWs)   bands (ev):

   -24.5635 -24.5635 -24.5554 -24.5554 -10.3867 -10.3867 -10.3755 -10.3755
    -7.6981  -7.6981  -7.6640  -7.6640  -7.5430  -7.5430  -7.5367  -7.5367
    -6.5609  -6.5609  -6.4848  -6.4848   1.3952   1.3952   1.5221   1.5221

          k = 0.1250-0.5000-0.5000 (  6848 PWs)   bands (ev):

   -24.5604 -24.5604 -24.5604 -24.5604 -10.3844 -10.3844 -10.3844 -10.3844
    -7.6964  -7.6964  -7.6964  -7.6964  -7.5456  -7.5456  -7.5456  -7.5456
    -6.5265  -6.5265  -6.5265  -6.5265   1.4665   1.4666   1.4666   1.4666

          k = 0.2500 0.2500 0.2500 (  6809 PWs)   bands (ev):

   -24.5715 -24.5573 -24.5541 -24.5541 -10.3870 -10.3870 -10.3855 -10.3569
    -7.7185  -7.6550  -7.6550  -7.6304  -7.5724  -7.5724  -7.5173  -7.5173
    -6.6997  -6.4660  -6.4660  -6.4644   1.2741   1.3268   1.3268   1.5786

          k = 0.2500 0.2500 0.3750 (  6844 PWs)   bands (ev):

   -24.5717 -24.5638 -24.5606 -24.5578 -10.3925 -10.3913 -10.3826 -10.3649
    -7.7273  -7.6909  -7.6562  -7.6465  -7.5787  -7.5579  -7.5344  -7.5216
    -6.6505  -6.5290  -6.4819  -6.4750   1.3057   1.3641   1.4129   1.5414

          k = 0.2500 0.2500-0.5000 (  6834 PWs)   bands (ev):

   -24.5668 -24.5668 -24.5583 -24.5583 -10.3903 -10.3903 -10.3737 -10.3737
    -7.7058  -7.7058  -7.6499  -7.6499  -7.5582  -7.5582  -7.5257  -7.5257
    -6.5827  -6.5827  -6.4778  -6.4778   1.3610   1.3610   1.5166   1.5166

          k = 0.2500 0.3750 0.3750 (  6855 PWs)   bands (ev):

   -24.5708 -24.5631 -24.5622 -24.5596 -10.3926 -10.3879 -10.3867 -10.3723
    -7.7259  -7.6912  -7.6822  -7.6639  -7.5654  -7.5550  -7.5307  -7.5264
    -6.6168  -6.5241  -6.5184  -6.4957   1.3605   1.4303   1.4482   1.5176

          k = 0.2500 0.3750-0.5000 (  6852 PWs)   bands (ev):

   -24.5662 -24.5662 -24.5604 -24.5604 -10.3905 -10.3905 -10.3794 -10.3794
    -7.7095  -7.7095  -7.6718  -7.6718  -7.5502  -7.5502  -7.5301  -7.5301
    -6.5668  -6.5668  -6.5074  -6.5074   1.4118   1.4120   1.5046   1.5049

          k = 0.2500-0.5000-0.5000 (  6860 PWs)   bands (ev):

   -24.5628 -24.5628 -24.5628 -24.5628 -10.3870 -10.3870 -10.3870 -10.3870
    -7.6992  -7.6992  -7.6992  -7.6992  -7.5403  -7.5403  -7.5403  -7.5403
    -6.5384  -6.5384  -6.5384  -6.5384   1.4645   1.4645   1.4647   1.4650

          k = 0.3750 0.3750 0.3750 (  6839 PWs)   bands (ev):

   -24.5682 -24.5637 -24.5585 -24.5585 -10.3878 -10.3861 -10.3861 -10.3767
    -7.7154  -7.6877  -7.6770  -7.6770  -7.5443  -7.5443  -7.5161  -7.5161
    -6.5964  -6.5288  -6.5187  -6.5187   1.4148   1.4749   1.4750   1.4907

          k = 0.3750 0.3750-0.5000 (  6854 PWs)   bands (ev):

   -24.5651 -24.5651 -24.5611 -24.5611 -10.3899 -10.3899 -10.3830 -10.3830
    -7.7068  -7.7068  -7.6871  -7.6871  -7.5414  -7.5414  -7.5229  -7.5229
    -6.5624  -6.5624  -6.5293  -6.5293   1.4419   1.4419   1.4898   1.4898

          k = 0.3750-0.5000-0.5000 (  6844 PWs)   bands (ev):

   -24.5624 -24.5624 -24.5624 -24.5624 -10.3859 -10.3859 -10.3859 -10.3859
    -7.6975  -7.6975  -7.6975  -7.6975  -7.5224  -7.5224  -7.5224  -7.5224
    -6.5469  -6.5469  -6.5469  -6.5469   1.4684   1.4684   1.4688   1.4693

          k =-0.5000-0.5000-0.5000 (  6776 PWs)   bands (ev):

   -24.5530 -24.5530 -24.5530 -24.5530 -10.3807 -10.3807 -10.3807 -10.3807
    -7.6770  -7.6770  -7.6770  -7.6770  -7.4915  -7.4915  -7.4915  -7.4915
    -6.5277  -6.5277  -6.5277  -6.5277   1.4936   1.4936   1.4936   1.4937

          k = 0.0000 0.2500 0.1250 (  6837 PWs)   bands (ev):

   -24.5802 -24.5603 -24.5563 -24.5543 -10.3939 -10.3927 -10.3852 -10.3485
    -7.6996  -7.6939  -7.6511  -7.6140  -7.5980  -7.5939  -7.5370  -7.5134
    -6.8078  -6.4832  -6.4409  -6.4279   1.1344   1.1650   1.2038   1.6078

          k = 0.0000 0.3750 0.1250 (  6815 PWs)   bands (ev):

   -24.5732 -24.5595 -24.5541 -24.5537 -10.3937 -10.3919 -10.3727 -10.3513
    -7.7040  -7.6857  -7.6257  -7.6111  -7.6032  -7.5742  -7.5440  -7.5120
    -6.7081  -6.5368  -6.4325  -6.4273   1.2027   1.2269   1.3448   1.5760

          k = 0.0000-0.5000 0.1250 (  6842 PWs)   bands (ev):

   -24.5712 -24.5712 -24.5557 -24.5557 -10.3948 -10.3948 -10.3650 -10.3650
    -7.7006  -7.7006  -7.6332  -7.6332  -7.5965  -7.5965  -7.5424  -7.5424
    -6.6246  -6.6246  -6.4362  -6.4362   1.2400   1.2400   1.4688   1.4689

          k = 0.0000 0.3750 0.2500 (  6826 PWs)   bands (ev):

   -24.5719 -24.5610 -24.5551 -24.5544 -10.3934 -10.3881 -10.3768 -10.3595
    -7.7041  -7.6983  -7.6329  -7.6122  -7.5968  -7.5816  -7.5313  -7.5178
    -6.6748  -6.5295  -6.4592  -6.4416   1.2552   1.2929   1.3704   1.5707

          k = 0.0000-0.5000 0.2500 (  6838 PWs)   bands (ev):

   -24.5673 -24.5673 -24.5567 -24.5567 -10.3929 -10.3929 -10.3686 -10.3686
    -7.7072  -7.7072  -7.6302  -7.6302  -7.5950  -7.5950  -7.5293  -7.5293
    -6.5984  -6.5984  -6.4551  -6.4551   1.3024   1.3024   1.4903   1.4903

          k = 0.0000-0.5000 0.3750 (  6838 PWs)   bands (ev):

   -24.5630 -24.5630 -24.5589 -24.5589 -10.3893 -10.3893 -10.3749 -10.3749
    -7.7113  -7.7113  -7.6621  -7.6621  -7.5689  -7.5689  -7.5266  -7.5266
    -6.5623  -6.5623  -6.4880  -6.4880   1.3868   1.3868   1.5096   1.5102

          k =-0.1250 0.3750 0.2500 (  6835 PWs)   bands (ev):

   -24.5731 -24.5636 -24.5569 -24.5537 -10.3932 -10.3898 -10.3798 -10.3609
    -7.7155  -7.6918  -7.6484  -7.6287  -7.5889  -7.5704  -7.5384  -7.5182
    -6.6726  -6.5309  -6.4654  -6.4481   1.2687   1.3179   1.3830   1.5557

          k =-0.1250-0.5000 0.2500 (  6838 PWs)   bands (ev):

   -24.5694 -24.5694 -24.5563 -24.5563 -10.3927 -10.3927 -10.3696 -10.3696
    -7.7097  -7.7097  -7.6362  -7.6362  -7.5808  -7.5808  -7.5274  -7.5274
    -6.5993  -6.5993  -6.4597  -6.4597   1.3216   1.3216   1.4956   1.4964

          k =-0.1250-0.5000 0.3750 (  6824 PWs)   bands (ev):

   -24.5647 -24.5647 -24.5542 -24.5542 -10.3867 -10.3867 -10.3753 -10.3753
    -7.7017  -7.7017  -7.6565  -7.6565  -7.5618  -7.5618  -7.5213  -7.5213
    -6.5644  -6.5644  -6.4822  -6.4822   1.4016   1.4016   1.5139   1.5140

          k =-0.2500-0.5000 0.3750 (  6852 PWs)   bands (ev):

   -24.5659 -24.5659 -24.5607 -24.5607 -10.3907 -10.3907 -10.3796 -10.3796
    -7.7081  -7.7081  -7.6765  -7.6765  -7.5511  -7.5511  -7.5254  -7.5254
    -6.5663  -6.5663  -6.5081  -6.5081   1.4133   1.4133   1.5046   1.5048

     the Fermi energy is    -4.9027 ev

!    total energy              =    -224.35015225 Ry
     Harris-Foulkes estimate   =    -224.35015225 Ry
     estimated scf accuracy    <          3.0E-10 Ry

     total all-electron energy =      -224.350152 Ry

     The total energy is the sum of the following terms:

     one-electron contribution =    -136.59971890 Ry
     hartree contribution      =      78.27542705 Ry
     xc contribution           =     -39.48596807 Ry
     ewald contribution        =     -57.94003530 Ry
     one-center paw contrib.   =     -68.59985703 Ry
     smearing contrib. (-TS)   =       0.00000000 Ry

     convergence has been achieved in   4 iterations

     Forces acting on atoms (cartesian axes, Ry/au):

     atom    1 type  1   force =    -0.00012749   -0.00012749   -0.00012749
     atom    2 type  1   force =     0.00012749    0.00012749   -0.00012749
     atom    3 type  1   force =     0.00012749   -0.00012749    0.00012749
     atom    4 type  1   force =    -0.00012749    0.00012749    0.00012749
     atom    5 type  1   force =     0.00012749    0.00012749    0.00012749
     atom    6 type  1   force =    -0.00012749   -0.00012749    0.00012749
     atom    7 type  1   force =    -0.00012749    0.00012749   -0.00012749
     atom    8 type  1   force =     0.00012749   -0.00012749   -0.00012749

     Total force =     0.000625     Total SCF correction =     0.000001

     bfgs converged in   4 scf cycles and   2 bfgs steps
     (criteria: energy <  1.0E-04 Ry, force <  1.0E-03 Ry/Bohr)

     End of BFGS Geometry Optimization

     Final energy   =    -224.3501522486 Ry
Begin final coordinates

ATOMIC_POSITIONS (crystal)
N        0.552293116   0.552293116   0.552293116
N        0.947706884   0.447706884   0.052293116
N        0.447706884   0.052293116   0.947706884
N        0.052293116   0.947706884   0.447706884
N        0.447706884   0.447706884   0.447706884
N        0.052293116   0.552293116   0.947706884
N        0.552293116   0.947706884   0.052293116
N        0.947706884   0.052293116   0.552293116
End final coordinates



     Writing output data file relax.save/
 
     init_run     :      2.42s CPU      2.48s WALL (       1 calls)
     electrons    :     80.21s CPU     81.22s WALL (       4 calls)
     update_pot   :      0.54s CPU      0.54s WALL (       3 calls)
     forces       :      1.33s CPU      1.34s WALL (       4 calls)

     Called by init_run:
     wfcinit      :      1.87s CPU      1.92s WALL (       1 calls)
     potinit      :      0.17s CPU      0.17s WALL (       1 calls)
     hinit0       :      0.16s CPU      0.17s WALL (       1 calls)

     Called by electrons:
     c_bands      :     67.84s CPU     68.69s WALL (      24 calls)
     sum_band     :      8.58s CPU      8.71s WALL (      24 calls)
     v_of_rho     :      0.47s CPU      0.47s WALL (      27 calls)
     newd         :      0.27s CPU      0.27s WALL (      27 calls)
     PAW_pot      :      3.93s CPU      3.93s WALL (      30 calls)
     mix_rho      :      0.07s CPU      0.07s WALL (      24 calls)

     Called by c_bands:
     init_us_2    :      1.21s CPU      1.23s WALL (    2520 calls)
     cegterg      :     63.85s CPU     64.67s WALL (    1080 calls)

     Called by sum_band:
     sum_band:bec :      0.02s CPU      0.02s WALL (    1215 calls)
     addusdens    :      0.23s CPU      0.23s WALL (      24 calls)

     Called by *egterg:
     h_psi        :     45.78s CPU     46.55s WALL (    4331 calls)
     s_psi        :      3.09s CPU      3.10s WALL (    4331 calls)
     g_psi        :      0.24s CPU      0.25s WALL (    3206 calls)
     cdiaghg      :      3.52s CPU      3.54s WALL (    4106 calls)

     Called by h_psi:
     h_psi:pot    :     45.38s CPU     46.15s WALL (    4331 calls)
     h_psi:calbec :      3.33s CPU      3.38s WALL (    4331 calls)
     vloc_psi     :     38.48s CPU     39.18s WALL (    4331 calls)
     add_vuspsi   :      3.54s CPU      3.56s WALL (    4331 calls)

     General routines
     calbec       :      5.04s CPU      5.11s WALL (    6266 calls)
     fft          :      0.36s CPU      0.36s WALL (     395 calls)
     ffts         :      0.02s CPU      0.02s WALL (      51 calls)
     fftw         :     40.36s CPU     41.09s WALL (  193354 calls)
     interpolate  :      0.04s CPU      0.04s WALL (      27 calls)
 
     Parallel routines
     fft_scatt_xy :      4.88s CPU      4.98s WALL (  193800 calls)
     fft_scatt_yz :     18.26s CPU     18.56s WALL (  193800 calls)
 
     PWSCF        :  1m25.74s CPU     1m26.94s WALL

 
   This run was terminated on:  14:51:15  16Jul2019            

=------------------------------------------------------------------------------=
   JOB DONE.
=------------------------------------------------------------------------------=
