===== VARIABLES =====
EXE_PATH = /scr/szymansk/2019-3/qe-bin/bin/pw.x
tpp = 4
Parallel keywords = -nimage 1
MPIRUN_EXE = orterun
PATH = /scr/szymansk/2019-3/mmshare-v4.7/lib/Linux-x86_64/openmpi/bin:/scr/szymansk/2019-3/internal/bin:/scr/szymansk/2019-3/mmshare-v4.7/bin/Linux-x86_64:/scr/szymansk/gaopaw/Examples/P/workdir_pp.1:.:/scr/szymansk/gaopaw/Examples/P:/scr/szymansk/gaopaw/scripts:/home/szymansk/bin:/scr/szymansk/dakota/bin:/scr/szymansk/atompaw-4.1.0.5/src/:/usr/lib64/qt-3.3/bin:/usr/local/bin:/usr/local/sbin:/usr/bin:/usr/sbin:/bin:/sbin
LD_LIBRARY_PATH = /scr/szymansk/2019-3/mmshare-v4.7/lib/Linux-x86_64/openmpi/lib:/scr/szymansk/2019-3/internal/lib/ssl:/scr/szymansk/2019-3/internal/lib:/scr/szymansk/2019-3/mmshare-v4.7/lib/Linux-x86_64:/scr/szymansk/2019-3/internal/lib/python3.6/site-packages:/scr/szymansk/dakota/bin:/software/lib/Linux-x86_64/ifort_2017.1.132/mkl/lib/intel64
===== END VARIABLES =====
Invoking: exe_cmd () 
{ 
    "$MPIRUN_EXE" -np $tpp "$EXE_PATH" -in $input_file "${P_KEYWORDS[@]}"
}

     Program PWSCF v.6.3MaX starts on 30Jul2019 at 16:50: 8 

     This program is part of the open-source Quantum ESPRESSO suite
     for quantum simulation of materials; please cite
         "P. Giannozzi et al., J. Phys.:Condens. Matter 21 395502 (2009);
         "P. Giannozzi et al., J. Phys.:Condens. Matter 29 465901 (2017);
          URL http://www.quantum-espresso.org", 
     in publications or presentations arising from this work. More details at
     http://www.quantum-espresso.org/quote

     Parallel version (MPI), running on     4 processors

     MPI processes distributed on     1 nodes
     R & G space division:  proc/nbgrp/npool/nimage =       4
     Reading input from P.ortho.relax.in

     Current dimensions of program PWSCF are:
     Max number of different atomic species (ntypx) = 10
     Max number of k-points (npk) =  40000
     Max angular momentum in pseudopotentials (lmaxx) =  3
               file P.GGA-PBE-paw.UPF: wavefunction(s)  Xn Xn Xn Xn renormalized

     Subspace diagonalization in iterative solution of the eigenvalue problem:
     a serial algorithm will be used

 
     Parallelization info
     --------------------
     sticks:   dense  smooth     PW     G-vecs:    dense   smooth      PW
     Min         247     198     69                 6161     4414     891
     Max         248     199     70                 6162     4416     893
     Sum         991     793    277                24647    17661    3567
 


     bravais-lattice index     =           -9
     lattice parameter (alat)  =       6.2660  a.u.
     unit-cell volume          =     516.6094 (a.u.)^3
     number of atoms/cell      =            4
     number of atomic types    =            1
     number of electrons       =        20.00
     number of Kohn-Sham states=           14
     kinetic-energy cutoff     =      40.0000  Ry
     charge density cutoff     =     200.0000  Ry
     convergence threshold     =      1.0E-08
     mixing beta               =       0.7000
     number of iterations used =            8  plain     mixing
     Exchange-correlation      = SLA PW PBX PBC ( 1  4  3  4 0 0)
     nstep                     =           50


     celldm(1)=   6.266000  celldm(2)=   3.172000  celldm(3)=   1.324000
     celldm(4)=   0.000000  celldm(5)=   0.000000  celldm(6)=   0.000000

     crystal axes: (cart. coord. in units of alat)
               a(1) = (   0.500000  -1.586000   0.000000 )  
               a(2) = (   0.500000   1.586000   0.000000 )  
               a(3) = (   0.000000   0.000000   1.324000 )  

     reciprocal axes: (cart. coord. in units 2 pi/alat)
               b(1) = (  1.000000 -0.315259  0.000000 )  
               b(2) = (  1.000000  0.315259  0.000000 )  
               b(3) = (  0.000000  0.000000  0.755287 )  


     PseudoPot. # 1 for P  read from file:
     ./P.GGA-PBE-paw.UPF
     MD5 check sum: 54e72cc6fec30548a34afd22aaa81ad1
     Pseudo is Projector augmented-wave + core cor, Zval =  5.0
     Generated using ATOMPAW code
     Shape of augmentation charge: SINC**2
     Using radial grid of 2342 points,  4 beta functions with: 
                l(1) =   0
                l(2) =   0
                l(3) =   1
                l(4) =   1
     Q(r) pseudized with 0 coefficients 


     atomic species   valence    mass     pseudopotential
        P              5.00    30.97376     P ( 1.00)

      8 Sym. Ops., with inversion, found ( 4 have fractional translation)



   Cartesian axes

     site n.     atom                  positions (alat units)
         1           P   tau(   1) = (   0.5000000   0.3108681   0.7811570  )
         2           P   tau(   2) = (   0.5000000   1.2751319   0.1191570  )
         3           P   tau(   3) = (   0.5000000  -1.2751319   1.2048430  )
         4           P   tau(   4) = (   0.5000000  -0.3108681   0.5428430  )

     number of k points=    65  Fermi-Dirac smearing, width (Ry)=  0.0020
                       cart. coord. in units 2pi/alat
        k(    1) = (   0.0000000   0.0000000   0.0000000), wk =   0.0069444
        k(    2) = (   0.0000000   0.0000000   0.0944109), wk =   0.0138889
        k(    3) = (   0.0000000   0.0000000   0.1888218), wk =   0.0138889
        k(    4) = (   0.0000000   0.0000000   0.2832326), wk =   0.0138889
        k(    5) = (   0.0000000   0.0000000  -0.3776435), wk =   0.0069444
        k(    6) = (   0.1666667   0.0525431   0.0000000), wk =   0.0277778
        k(    7) = (   0.1666667   0.0525431   0.0944109), wk =   0.0555556
        k(    8) = (   0.1666667   0.0525431   0.1888218), wk =   0.0555556
        k(    9) = (   0.1666667   0.0525431   0.2832326), wk =   0.0555556
        k(   10) = (   0.1666667   0.0525431  -0.3776435), wk =   0.0277778
        k(   11) = (   0.3333333   0.1050862   0.0000000), wk =   0.0277778
        k(   12) = (   0.3333333   0.1050862   0.0944109), wk =   0.0555556
        k(   13) = (   0.3333333   0.1050862   0.1888218), wk =   0.0555556
        k(   14) = (   0.3333333   0.1050862   0.2832326), wk =   0.0555556
        k(   15) = (   0.3333333   0.1050862  -0.3776435), wk =   0.0277778
        k(   16) = (  -0.5000000  -0.1576293   0.0000000), wk =   0.0138889
        k(   17) = (  -0.5000000  -0.1576293   0.0944109), wk =   0.0277778
        k(   18) = (  -0.5000000  -0.1576293   0.1888218), wk =   0.0277778
        k(   19) = (  -0.5000000  -0.1576293   0.2832326), wk =   0.0277778
        k(   20) = (  -0.5000000  -0.1576293  -0.3776435), wk =   0.0138889
        k(   21) = (   0.3333333   0.0000000   0.0000000), wk =   0.0138889
        k(   22) = (   0.3333333   0.0000000   0.0944109), wk =   0.0277778
        k(   23) = (   0.3333333   0.0000000   0.1888218), wk =   0.0277778
        k(   24) = (   0.3333333   0.0000000   0.2832326), wk =   0.0277778
        k(   25) = (   0.3333333   0.0000000  -0.3776435), wk =   0.0138889
        k(   26) = (   0.5000000   0.0525431   0.0000000), wk =   0.0277778
        k(   27) = (   0.5000000   0.0525431   0.0944109), wk =   0.0555556
        k(   28) = (   0.5000000   0.0525431   0.1888218), wk =   0.0555556
        k(   29) = (   0.5000000   0.0525431   0.2832326), wk =   0.0555556
        k(   30) = (   0.5000000   0.0525431  -0.3776435), wk =   0.0277778
        k(   31) = (  -0.3333333  -0.2101723   0.0000000), wk =   0.0277778
        k(   32) = (  -0.3333333  -0.2101723   0.0944109), wk =   0.0555556
        k(   33) = (  -0.3333333  -0.2101723   0.1888218), wk =   0.0555556
        k(   34) = (  -0.3333333  -0.2101723   0.2832326), wk =   0.0555556
        k(   35) = (  -0.3333333  -0.2101723  -0.3776435), wk =   0.0277778
        k(   36) = (  -0.1666667  -0.1576293   0.0000000), wk =   0.0277778
        k(   37) = (  -0.1666667  -0.1576293   0.0944109), wk =   0.0555556
        k(   38) = (  -0.1666667  -0.1576293   0.1888218), wk =   0.0555556
        k(   39) = (  -0.1666667  -0.1576293   0.2832326), wk =   0.0555556
        k(   40) = (  -0.1666667  -0.1576293  -0.3776435), wk =   0.0277778
        k(   41) = (   0.0000000  -0.1050862   0.0000000), wk =   0.0138889
        k(   42) = (   0.0000000  -0.1050862   0.0944109), wk =   0.0277778
        k(   43) = (   0.0000000  -0.1050862   0.1888218), wk =   0.0277778
        k(   44) = (   0.0000000  -0.1050862   0.2832326), wk =   0.0277778
        k(   45) = (   0.0000000  -0.1050862  -0.3776435), wk =   0.0138889
        k(   46) = (   0.6666667   0.0000000   0.0000000), wk =   0.0138889
        k(   47) = (   0.6666667   0.0000000   0.0944109), wk =   0.0277778
        k(   48) = (   0.6666667   0.0000000   0.1888218), wk =   0.0277778
        k(   49) = (   0.6666667   0.0000000   0.2832326), wk =   0.0277778
        k(   50) = (   0.6666667   0.0000000  -0.3776435), wk =   0.0138889
        k(   51) = (  -0.1666667  -0.2627154   0.0000000), wk =   0.0277778
        k(   52) = (  -0.1666667  -0.2627154   0.0944109), wk =   0.0555556
        k(   53) = (  -0.1666667  -0.2627154   0.1888218), wk =   0.0555556
        k(   54) = (  -0.1666667  -0.2627154   0.2832326), wk =   0.0555556
        k(   55) = (  -0.1666667  -0.2627154  -0.3776435), wk =   0.0277778
        k(   56) = (  -0.0000000  -0.2101723   0.0000000), wk =   0.0138889
        k(   57) = (  -0.0000000  -0.2101723   0.0944109), wk =   0.0277778
        k(   58) = (  -0.0000000  -0.2101723   0.1888218), wk =   0.0277778
        k(   59) = (  -0.0000000  -0.2101723   0.2832326), wk =   0.0277778
        k(   60) = (  -0.0000000  -0.2101723  -0.3776435), wk =   0.0138889
        k(   61) = (  -1.0000000   0.0000000   0.0000000), wk =   0.0069444
        k(   62) = (  -1.0000000   0.0000000   0.0944109), wk =   0.0138889
        k(   63) = (  -1.0000000   0.0000000   0.1888218), wk =   0.0138889
        k(   64) = (  -1.0000000   0.0000000   0.2832326), wk =   0.0138889
        k(   65) = (  -1.0000000   0.0000000  -0.3776435), wk =   0.0069444

     Dense  grid:    24647 G-vectors     FFT dimensions: (  48,  48,  40)

     Smooth grid:    17661 G-vectors     FFT dimensions: (  45,  45,  36)

     Estimated max dynamical RAM per process >      17.85 MB

     Estimated total dynamical RAM >      71.40 MB

     Check: negative/imaginary core charge=   -0.000012    0.000000

     Initial potential from superposition of free atoms
     Check: negative starting charge=   -0.031268

     starting charge   19.99942, renormalised to   20.00000

     negative rho (up, down):  3.127E-02 0.000E+00
     Starting wfcs are   32 randomized atomic wfcs
     Checking if some PAW data can be deallocated... 

     total cpu time spent up to now is        1.8 secs

     Self-consistent Calculation

     iteration #  1     ecut=    40.00 Ry     beta= 0.70
     Davidson diagonalization with overlap
     ethr =  1.00E-02,  avg # of iterations =  3.2

     Threshold (ethr) on eigenvalues was too large:
     Diagonalizing with lowered threshold

     Davidson diagonalization with overlap
     ethr =  3.29E-04,  avg # of iterations =  2.3

     negative rho (up, down):  4.144E-02 0.000E+00

     total cpu time spent up to now is        3.8 secs

     total energy              =    -222.12846622 Ry
     Harris-Foulkes estimate   =    -222.14597624 Ry
     estimated scf accuracy    <       0.06553337 Ry

     iteration #  2     ecut=    40.00 Ry     beta= 0.70
     Davidson diagonalization with overlap
     ethr =  3.28E-04,  avg # of iterations =  1.0

     negative rho (up, down):  4.518E-02 0.000E+00

     total cpu time spent up to now is        5.0 secs

     total energy              =    -222.13089854 Ry
     Harris-Foulkes estimate   =    -222.13202228 Ry
     estimated scf accuracy    <       0.00390107 Ry

     iteration #  3     ecut=    40.00 Ry     beta= 0.70
     Davidson diagonalization with overlap
     ethr =  1.95E-05,  avg # of iterations =  3.7

     negative rho (up, down):  4.548E-02 0.000E+00

     total cpu time spent up to now is        6.7 secs

     total energy              =    -222.13113347 Ry
     Harris-Foulkes estimate   =    -222.13154220 Ry
     estimated scf accuracy    <       0.00067751 Ry

     iteration #  4     ecut=    40.00 Ry     beta= 0.70
     Davidson diagonalization with overlap
     ethr =  3.39E-06,  avg # of iterations =  2.6

     negative rho (up, down):  4.556E-02 0.000E+00

     total cpu time spent up to now is        8.4 secs

     total energy              =    -222.13132900 Ry
     Harris-Foulkes estimate   =    -222.13139807 Ry
     estimated scf accuracy    <       0.00014204 Ry

     iteration #  5     ecut=    40.00 Ry     beta= 0.70
     Davidson diagonalization with overlap
     ethr =  7.10E-07,  avg # of iterations =  2.0

     negative rho (up, down):  4.554E-02 0.000E+00

     total cpu time spent up to now is       10.0 secs

     total energy              =    -222.13135921 Ry
     Harris-Foulkes estimate   =    -222.13135940 Ry
     estimated scf accuracy    <       0.00000086 Ry

     iteration #  6     ecut=    40.00 Ry     beta= 0.70
     Davidson diagonalization with overlap
     ethr =  4.32E-09,  avg # of iterations =  3.1

     negative rho (up, down):  4.553E-02 0.000E+00

     total cpu time spent up to now is       11.9 secs

     total energy              =    -222.13135979 Ry
     Harris-Foulkes estimate   =    -222.13135980 Ry
     estimated scf accuracy    <       0.00000008 Ry

     iteration #  7     ecut=    40.00 Ry     beta= 0.70
     Davidson diagonalization with overlap
     ethr =  3.78E-10,  avg # of iterations =  2.0

     negative rho (up, down):  4.553E-02 0.000E+00

     total cpu time spent up to now is       13.0 secs

     End of self-consistent calculation

          k = 0.0000 0.0000 0.0000 (  2215 PWs)   bands (ev):

    -8.5774  -5.5591  -2.1495   0.5409   2.6687   3.0500   3.0615   4.6100
     4.8580   6.3787   8.2848   8.3055   9.1877  10.5144

          k = 0.0000 0.0000 0.0944 (  2239 PWs)   bands (ev):

    -8.4897  -5.7012  -2.1653   0.4753   2.6136   3.0180   3.1140   4.5711
     5.4838   5.7856   8.2498   9.0748   9.0891  10.3642

          k = 0.0000 0.0000 0.1888 (  2201 PWs)   bands (ev):

    -8.2311  -6.1046  -2.0879   0.1231   2.2418   3.2980   3.8839   4.4428
     4.7880   6.4264   8.5171   8.7609  10.1182  10.2486

          k = 0.0000 0.0000 0.2832 (  2204 PWs)   bands (ev):

    -7.8169  -6.6743  -1.7792  -0.5462   2.4362   3.5763   3.7980   4.2117
     5.0064   6.7257   8.6209   8.8079  10.0629  10.8759

          k = 0.0000 0.0000-0.3776 (  2208 PWs)   bands (ev):

    -7.2785  -7.2785  -1.2394  -1.2394   3.0033   3.0033   3.9026   3.9026
     6.0506   6.0506   8.8367   8.8367  10.3180  10.3180

          k = 0.1667 0.0525 0.0000 (  2220 PWs)   bands (ev):

    -8.2361  -5.2478  -2.4246   0.8505   1.7832   1.9377   2.9246   4.1519
     4.9689   6.5591   8.6046   9.2951  10.4268  11.1048

          k = 0.1667 0.0525 0.0944 (  2218 PWs)   bands (ev):

    -8.1496  -5.3937  -2.3780   0.6885   1.7138   1.8873   3.3949   3.7424
     5.4060   6.0374   8.9757   9.4505  10.4092  11.0635

          k = 0.1667 0.0525 0.1888 (  2210 PWs)   bands (ev):

    -7.8949  -5.7999  -2.1894   0.1820   1.6329   2.1006   3.1717   4.3926
     5.1256   5.7545   9.5239   9.8331  10.4200  10.9618

          k = 0.1667 0.0525 0.2832 (  2206 PWs)   bands (ev):

    -7.4873  -6.3638  -1.8038  -0.5288   1.8003   2.3610   2.9105   4.1342
     5.3392   5.8355   9.4748  10.1945  10.9254  11.1593

          k = 0.1667 0.0525-0.3776 (  2206 PWs)   bands (ev):

    -6.9580  -6.9580  -1.2308  -1.2308   2.1257   2.1257   3.3588   3.3588
     5.7678   5.7678   9.7447   9.7447  11.3297  11.3297

          k = 0.3333 0.1051 0.0000 (  2218 PWs)   bands (ev):

    -7.2324  -4.3119  -3.7584  -0.6141   1.3734   1.6387   3.5460   4.3289
     4.9040   5.9951   8.0594   9.1951   9.5392   9.9288

          k = 0.3333 0.1051 0.0944 (  2212 PWs)   bands (ev):

    -7.1514  -4.5514  -3.5251  -0.7099   1.1019   1.7234   3.7491   4.0367
     4.7552   5.9697   8.5928   9.0458   9.5502   9.9476

          k = 0.3333 0.1051 0.1888 (  2208 PWs)   bands (ev):

    -6.9139  -4.9966  -3.0970  -1.0013   0.8096   1.7133   3.3192   4.1483
     4.5711   5.8571   8.7844   9.5004  10.0955  10.7988

          k = 0.3333 0.1051 0.2832 (  2200 PWs)   bands (ev):

    -6.5373  -5.5190  -2.5850  -1.4640   0.7813   1.4429   3.1403   3.8702
     4.6912   5.5343   9.4387  10.0203  10.9559  11.1360

          k = 0.3333 0.1051-0.3776 (  2200 PWs)   bands (ev):

    -6.0549  -6.0549  -2.0211  -2.0211   1.0351   1.0351   3.4188   3.4188
     5.0639   5.0639  10.4372  10.4372  10.7439  10.7439

          k =-0.5000-0.1576 0.0000 (  2200 PWs)   bands (ev):

    -5.6486  -5.6486  -2.7536  -2.7536   1.9408   1.9408   4.1670   4.1670
     4.9128   4.9128   8.4599   8.4599   9.1550   9.1550

          k =-0.5000-0.1576 0.0944 (  2198 PWs)   bands (ev):

    -5.5933  -5.5933  -2.7949  -2.7949   1.8024   1.8024   3.8043   3.8043
     5.2138   5.2138   8.3974   8.3974   9.8599   9.8599

          k =-0.5000-0.1576 0.1888 (  2206 PWs)   bands (ev):

    -5.4457  -5.4457  -2.9215  -2.9215   1.5929   1.5929   3.1803   3.1803
     5.5162   5.5162   9.0025   9.0025  10.1754  10.1754

          k =-0.5000-0.1576 0.2832 (  2212 PWs)   bands (ev):

    -5.2704  -5.2704  -3.0947  -3.0947   1.5867   1.5867   2.5328   2.5328
     5.6918   5.6918   9.3771   9.3771  10.6387  10.6387

          k =-0.5000-0.1576-0.3776 (  2216 PWs)   bands (ev):

    -5.1858  -5.1858  -3.1842  -3.1842   1.7429   1.7429   2.1381   2.1381
     5.7623   5.7623   9.2519   9.2519  11.5206  11.5207

          k = 0.3333 0.0000 0.0000 (  2212 PWs)   bands (ev):

    -7.2716  -4.2031  -3.7343  -0.6982   1.3670   1.5101   3.6601   4.4837
     4.7159   6.0785   8.3118   8.9283   9.3945   9.5974

          k = 0.3333 0.0000 0.0944 (  2218 PWs)   bands (ev):

    -7.1897  -4.4853  -3.4676  -0.7759   1.1768   1.5516   3.9282   4.0813
     4.5694   5.9064   8.8891   8.9199   9.3863   9.6293

          k = 0.3333 0.0000 0.1888 (  2210 PWs)   bands (ev):

    -6.9492  -4.9693  -3.0243  -1.0241   0.9393   1.6325   3.3741   4.0973
     4.3741   5.6086   8.6422  10.0468  10.1078  10.4278

          k = 0.3333 0.0000 0.2832 (  2194 PWs)   bands (ev):

    -6.5667  -5.5196  -2.5147  -1.4423   0.9464   1.5491   3.0124   3.7249
     4.4168   5.2102   9.3767  10.5689  11.0774  11.2309

          k = 0.3333 0.0000-0.3776 (  2198 PWs)   bands (ev):

    -6.0736  -6.0736  -1.9677  -1.9677   1.2107   1.2107   3.2372   3.2372
     4.7363   4.7363  10.5868  10.5868  11.0846  11.0846

          k = 0.5000 0.0525 0.0000 (  2200 PWs)   bands (ev):

    -5.7107  -5.5809  -2.9312  -2.5734   1.8693   2.0006   4.1299   4.2337
     4.5918   5.2371   8.3755   8.4353   9.1896   9.3285

          k = 0.5000 0.0525 0.0944 (  2200 PWs)   bands (ev):

    -5.6527  -5.5287  -2.9529  -2.6368   1.7155   1.9042   3.7523   3.7720
     4.9710   5.6099   8.1532   8.4830   9.8074   9.9452

          k = 0.5000 0.0525 0.1888 (  2206 PWs)   bands (ev):

    -5.4959  -5.3918  -3.0277  -2.8179   1.4535   1.7774   3.0029   3.3041
     5.2066   5.9098   8.6236   9.1772   9.8729  10.5945

          k = 0.5000 0.0525 0.2832 (  2212 PWs)   bands (ev):

    -5.3016  -5.2380  -3.1409  -3.0491   1.3897   1.8057   2.3322   2.7810
     5.3628   5.8652   9.3300   9.6733  10.5158  10.8738

          k = 0.5000 0.0525-0.3776 (  2210 PWs)   bands (ev):

    -5.1859  -5.1859  -3.1831  -3.1831   1.6217   1.6217   2.3061   2.3061
     5.6219   5.6219   9.5567   9.5567  11.5143  11.5143

          k =-0.3333-0.2102 0.0000 (  2202 PWs)   bands (ev):

    -7.1473  -4.5279  -3.8046  -0.4353   1.3744   1.9412   3.2361   4.0384
     5.3484   5.8832   7.9706   9.4931   9.5042  10.1838

          k =-0.3333-0.2102 0.0944 (  2193 PWs)   bands (ev):

    -7.0684  -4.6959  -3.6251  -0.5698   1.0348   1.9462   3.5175   3.8677
     5.2487   5.9858   8.4179   9.2345   9.8190   9.9774

          k =-0.3333-0.2102 0.1888 (  2199 PWs)   bands (ev):

    -6.8376  -5.0599  -3.2323  -0.9527   0.6410   1.6897   3.3936   4.1659
     5.1869   6.1308   8.7500   9.4141  10.0865  10.8207

          k =-0.3333-0.2102 0.2832 (  2205 PWs)   bands (ev):

    -6.4746  -5.5211  -2.7213  -1.5080   0.5402   1.2078   3.4421   4.1127
     5.3926   6.0780   9.0781   9.9209  10.3532  10.9642

          k =-0.3333-0.2102-0.3776 (  2210 PWs)   bands (ev):

    -6.0164  -6.0164  -2.1281  -2.1281   0.7599   0.7599   3.7541   3.7541
     5.7575   5.7575   9.7075   9.7075  10.7225  10.7225

          k =-0.1667-0.1576 0.0000 (  2212 PWs)   bands (ev):

    -8.1626  -5.4388  -2.4073   1.1254   1.6975   2.0148   2.7144   3.8937
     5.3207   6.9684   8.5280   9.3996  10.2812  11.1555

          k =-0.1667-0.1576 0.0944 (  2213 PWs)   bands (ev):

    -8.0777  -5.5460  -2.4149   0.7558   1.6506   2.0582   3.1680   3.7906
     5.5978   6.5784   8.6703   9.6390  10.3417  11.2232

          k =-0.1667-0.1576 0.1888 (  2203 PWs)   bands (ev):

    -7.8281  -5.8716  -2.3374   0.0321   1.4996   2.4462   3.2477   4.3780
     5.7890   5.9376   9.1951  10.0498  10.3887  10.8023

          k =-0.1667-0.1576 0.2832 (  2210 PWs)   bands (ev):

    -7.4313  -6.3683  -2.0400  -0.7816   1.6695   2.3974   3.4673   4.7582
     5.4753   6.0123   9.6863  10.0518  10.6480  10.9409

          k =-0.1667-0.1576-0.3776 (  2210 PWs)   bands (ev):

    -6.9229  -6.9229  -1.5040  -1.5040   2.0208   2.0208   4.0758   4.0758
     5.9080   5.9080   9.8445   9.8445  11.0050  11.0051

          k = 0.0000-0.1051 0.0000 (  2236 PWs)   bands (ev):

    -8.5359  -5.6702  -2.1246   0.6902   2.5890   2.8507   3.0132   4.6689
     4.9735   6.7391   8.1928   8.4816   9.3048  10.4734

          k = 0.0000-0.1051 0.0944 (  2222 PWs)   bands (ev):

    -8.4490  -5.7897  -2.1875   0.5846   2.3932   3.0785   3.1100   4.6233
     5.5134   6.1837   8.2058   9.0839   9.2065  10.3418

          k = 0.0000-0.1051 0.1888 (  2217 PWs)   bands (ev):

    -8.1933  -6.1460  -2.1964   0.0549   2.3850   3.2667   3.8963   4.4768
     5.2240   6.4184   8.4594   8.8263  10.0827  10.1339

          k = 0.0000-0.1051 0.2832 (  2207 PWs)   bands (ev):

    -7.7851  -6.6767  -1.9501  -0.7213   2.7833   3.5533   4.2217   4.2229
     5.0033   6.7011   8.6534   8.7972  10.1170  10.9775

          k = 0.0000-0.1051-0.3776 (  2198 PWs)   bands (ev):

    -7.2583  -7.2583  -1.4347  -1.4347   3.4241   3.4241   3.8935   3.8935
     6.0180   6.0180   8.8601   8.8601  10.4014  10.4014

          k = 0.6667 0.0000 0.0000 (  2204 PWs)   bands (ev):

    -7.1007  -4.6365  -3.8267  -0.3388   1.3666   2.1535   3.0105   3.9032
     5.5861   5.8436   8.3774   8.8305   9.4948  10.3445

          k = 0.6667 0.0000 0.0944 (  2199 PWs)   bands (ev):

    -7.0230  -4.7744  -3.6687  -0.4935   1.0076   2.0271   3.4936   3.7122
     5.6225   5.8898   8.7471   8.8388   9.8203   9.9129

          k = 0.6667 0.0000 0.1888 (  2198 PWs)   bands (ev):

    -6.7961  -5.0964  -3.2953  -0.9250   0.5701   1.6367   3.5175   4.1154
     5.7257   6.0639   8.4967   9.7437   9.9243  10.8663

          k = 0.6667 0.0000 0.2832 (  2209 PWs)   bands (ev):

    -6.4409  -5.5241  -2.7877  -1.5300   0.4407   1.0993   3.6206   4.2032
     5.9162   6.2353   8.6733  10.1392  10.2384  10.8811

          k = 0.6667 0.0000-0.3776 (  2218 PWs)   bands (ev):

    -5.9966  -5.9966  -2.1817  -2.1817   0.6462   0.6462   3.9233   3.9233
     6.1381   6.1381   9.3737   9.3737  10.7320  10.7320

          k =-0.1667-0.2627 0.0000 (  2211 PWs)   bands (ev):

    -8.0809  -5.6305  -2.3900   1.5479   1.7453   1.9203   2.2786   3.7450
     6.0545   7.2983   8.2504   9.0385  10.1863  11.1679

          k =-0.1667-0.2627 0.0944 (  2209 PWs)   bands (ev):

    -7.9978  -5.7051  -2.4381   0.8148   1.4807   2.4000   2.9453   3.7242
     6.1726   7.0102   8.4679   9.1865  10.2783  11.2423

          k =-0.1667-0.2627 0.1888 (  2205 PWs)   bands (ev):

    -7.7544  -5.9540  -2.4533  -0.1278   1.3776   2.6709   3.6689   4.1460
     6.2904   6.4604   8.9698   9.7397  10.3493  10.8863

          k =-0.1667-0.2627 0.2832 (  2197 PWs)   bands (ev):

    -7.3703  -6.3778  -2.2392  -1.0163   1.5765   2.3889   4.2187   4.9795
     5.8919   6.3268   9.5714   9.9369  10.1796  10.8586

          k =-0.1667-0.2627-0.3776 (  2194 PWs)   bands (ev):

    -6.8865  -6.8865  -1.7445  -1.7445   1.9551   1.9551   4.8114   4.8114
     6.0986   6.0986   9.7712   9.7712  10.3185  10.3185

          k =-0.0000-0.2102 0.0000 (  2220 PWs)   bands (ev):

    -8.4454  -5.8921  -2.0728   1.0732   2.2364   2.4986   2.9462   4.7811
     5.5667   7.4321   8.0485   8.4003   9.4624  10.3980

          k =-0.0000-0.2102 0.0944 (  2211 PWs)   bands (ev):

    -8.3605  -5.9727  -2.2095   0.7167   2.2204   3.0137   3.0690   4.7218
     5.9059   6.9518   8.0893   8.8508   9.2900  10.3058

          k =-0.0000-0.2102 0.1888 (  2207 PWs)   bands (ev):

    -8.1112  -6.2390  -2.3613  -0.1610   2.8576   3.2093   3.8389   4.5392
     6.1037   6.5859   8.3448   8.8781   9.5342  10.1785

          k =-0.0000-0.2102 0.2832 (  2206 PWs)   bands (ev):

    -7.7166  -6.6862  -2.2292  -1.0488   3.5106   3.5999   4.2417   4.7313
     5.3086   6.6685   8.6728   8.7659  10.2389  10.2633

          k =-0.0000-0.2102-0.3776 (  2200 PWs)   bands (ev):

    -7.2167  -7.2167  -1.7690  -1.7690   3.8756   3.8756   4.3460   4.3460
     5.9044   5.9044   8.8715   8.8715  10.5798  10.5798

          k =-1.0000 0.0000 0.0000 (  2202 PWs)   bands (ev):

    -8.3955  -6.0042  -2.0457   1.4496   1.8412   2.3447   2.9152   4.8349
     6.2126   7.7259   7.8372   8.0734   9.5078  10.3630

          k =-1.0000 0.0000 0.0944 (  2196 PWs)   bands (ev):

    -8.3117  -6.0679  -2.2112   0.7298   2.2592   2.9431   2.9838   4.7686
     6.4541   7.2361   8.0403   8.3886   9.3156  10.2916

          k =-1.0000 0.0000 0.1888 (  2220 PWs)   bands (ev):

    -8.0661  -6.2912  -2.4236  -0.2850   3.1827   3.2414   3.6739   4.5681
     6.5669   6.8915   8.2168   8.9103   9.0450  10.2069

          k =-1.0000 0.0000 0.2832 (  2196 PWs)   bands (ev):

    -7.6795  -6.6939  -2.3464  -1.2018   3.4906   4.2498   4.3391   4.4077
     5.8479   6.6457   8.5148   8.8669   9.8179  10.3073

          k =-1.0000 0.0000-0.3776 (  2204 PWs)   bands (ev):

    -7.1952  -7.1952  -1.9167  -1.9167   3.8668   3.8668   4.9638   4.9638
     5.7409   5.7409   8.8253   8.8253  10.4285  10.4287

     the Fermi energy is     7.7810 ev

!    total energy              =    -222.13135980 Ry
     Harris-Foulkes estimate   =    -222.13135980 Ry
     estimated scf accuracy    <          2.9E-09 Ry

     total all-electron energy =      -222.131360 Ry

     The total energy is the sum of the following terms:

     one-electron contribution =       8.21190780 Ry
     hartree contribution      =       6.42258298 Ry
     xc contribution           =     -19.99520112 Ry
     ewald contribution        =     -51.30110410 Ry
     one-center paw contrib.   =    -165.46953498 Ry
     smearing contrib. (-TS)   =      -0.00001037 Ry

     convergence has been achieved in   7 iterations

     negative rho (up, down):  4.553E-02 0.000E+00

     Forces acting on atoms (cartesian axes, Ry/au):

     atom    1 type  1   force =    -0.00000000    0.01734361   -0.02923858
     atom    2 type  1   force =     0.00000000   -0.01734361   -0.02923858
     atom    3 type  1   force =     0.00000000    0.01734361    0.02923858
     atom    4 type  1   force =    -0.00000000   -0.01734361    0.02923858

     Total force =     0.067991     Total SCF correction =     0.000073


     Computing stress (Cartesian axis) and pressure


     negative rho (up, down):  4.553E-02 0.000E+00
          total   stress  (Ry/bohr**3)                   (kbar)     P=   51.99
   0.00025401  -0.00000000   0.00000000         37.37     -0.00      0.00
  -0.00000000   0.00036582   0.00000000         -0.00     53.81      0.00
   0.00000000   0.00000000   0.00044039          0.00      0.00     64.78


     BFGS Geometry Optimization

     number of scf cycles    =   1
     number of bfgs steps    =   0

     enthalpy new            =    -222.1313598011 Ry

     new trust radius        =       0.0500483610 bohr
     new conv_thr            =       0.0000000100 Ry

     new unit-cell volume =    530.42090 a.u.^3 (    78.60027 Ang^3 )
     density =      2.61745 g/cm^3

CELL_PARAMETERS (alat=  6.26600000)
   0.503175084  -1.600504847   0.000000000
   0.503175084   1.600504847   0.000000000
   0.000000000   0.000000000   1.338576951

ATOMIC_POSITIONS (crystal)
P        0.401123599   0.598876401   0.586473380
P        0.098876401   0.901123599   0.086473380
P        0.901123599   0.098876401   0.913526620
P        0.598876401   0.401123599   0.413526620



     Writing output data file relax.save/
     Check: negative starting charge=   -0.031268
     NEW-OLD atomic charge density approx. for the potential

     Check: negative/imaginary core charge=   -0.000011    0.000000
     Check: negative starting charge=   -0.031908

     negative rho (up, down):  4.677E-02 0.000E+00
     extrapolated charge   20.52076, renormalised to   20.00000

     total cpu time spent up to now is       14.2 secs

     Self-consistent Calculation

     iteration #  1     ecut=    40.00 Ry     beta= 0.70
     Davidson diagonalization with overlap
     ethr =  1.00E-06,  avg # of iterations =  6.8

     negative rho (up, down):  4.482E-02 0.000E+00

     total cpu time spent up to now is       17.1 secs

     total energy              =    -222.12609474 Ry
     Harris-Foulkes estimate   =    -222.33858152 Ry
     estimated scf accuracy    <       0.01000514 Ry

     iteration #  2     ecut=    40.00 Ry     beta= 0.70
     Davidson diagonalization with overlap
     ethr =  5.00E-05,  avg # of iterations =  3.3

     negative rho (up, down):  4.470E-02 0.000E+00

     total cpu time spent up to now is       19.2 secs

     total energy              =    -222.13556039 Ry
     Harris-Foulkes estimate   =    -222.14791081 Ry
     estimated scf accuracy    <       0.03276187 Ry

     iteration #  3     ecut=    40.00 Ry     beta= 0.70
     Davidson diagonalization with overlap
     ethr =  5.00E-05,  avg # of iterations =  2.0

     negative rho (up, down):  4.462E-02 0.000E+00

     total cpu time spent up to now is       20.8 secs

     total energy              =    -222.13826965 Ry
     Harris-Foulkes estimate   =    -222.13890955 Ry
     estimated scf accuracy    <       0.00279172 Ry

     iteration #  4     ecut=    40.00 Ry     beta= 0.70
     Davidson diagonalization with overlap
     ethr =  1.40E-05,  avg # of iterations =  1.0

     negative rho (up, down):  4.467E-02 0.000E+00

     total cpu time spent up to now is       22.0 secs

     total energy              =    -222.13792336 Ry
     Harris-Foulkes estimate   =    -222.13835942 Ry
     estimated scf accuracy    <       0.00131346 Ry

     iteration #  5     ecut=    40.00 Ry     beta= 0.70
     Davidson diagonalization with overlap
     ethr =  6.57E-06,  avg # of iterations =  2.1

     negative rho (up, down):  4.463E-02 0.000E+00

     total cpu time spent up to now is       23.6 secs

     total energy              =    -222.13804647 Ry
     Harris-Foulkes estimate   =    -222.13807359 Ry
     estimated scf accuracy    <       0.00013328 Ry

     iteration #  6     ecut=    40.00 Ry     beta= 0.70
     Davidson diagonalization with overlap
     ethr =  6.66E-07,  avg # of iterations =  1.8

     negative rho (up, down):  4.457E-02 0.000E+00

     total cpu time spent up to now is       25.0 secs

     total energy              =    -222.13800930 Ry
     Harris-Foulkes estimate   =    -222.13805074 Ry
     estimated scf accuracy    <       0.00007488 Ry

     iteration #  7     ecut=    40.00 Ry     beta= 0.70
     Davidson diagonalization with overlap
     ethr =  3.74E-07,  avg # of iterations =  2.1

     negative rho (up, down):  4.457E-02 0.000E+00

     total cpu time spent up to now is       26.6 secs

     total energy              =    -222.13803055 Ry
     Harris-Foulkes estimate   =    -222.13803088 Ry
     estimated scf accuracy    <       0.00000246 Ry

     iteration #  8     ecut=    40.00 Ry     beta= 0.70
     Davidson diagonalization with overlap
     ethr =  1.23E-08,  avg # of iterations =  2.2

     negative rho (up, down):  4.456E-02 0.000E+00

     total cpu time spent up to now is       28.1 secs

     total energy              =    -222.13803045 Ry
     Harris-Foulkes estimate   =    -222.13803101 Ry
     estimated scf accuracy    <       0.00000139 Ry

     iteration #  9     ecut=    40.00 Ry     beta= 0.70
     Davidson diagonalization with overlap
     ethr =  6.97E-09,  avg # of iterations =  1.4

     negative rho (up, down):  4.456E-02 0.000E+00

     total cpu time spent up to now is       29.4 secs

     total energy              =    -222.13803050 Ry
     Harris-Foulkes estimate   =    -222.13803057 Ry
     estimated scf accuracy    <       0.00000017 Ry

     iteration # 10     ecut=    40.00 Ry     beta= 0.70
     Davidson diagonalization with overlap
     ethr =  8.26E-10,  avg # of iterations =  2.0

     negative rho (up, down):  4.457E-02 0.000E+00

     total cpu time spent up to now is       30.9 secs

     End of self-consistent calculation

          k = 0.0000 0.0000 0.0000 (  2215 PWs)   bands (ev):

    -8.5618  -5.6199  -2.3951   0.4222   2.4517   2.5692   3.0297   4.5435
     4.5613   6.0305   8.0109   8.1733   8.9867  10.1282

          k = 0.0000 0.0000 0.0934 (  2239 PWs)   bands (ev):

    -8.4761  -5.7571  -2.4080   0.3405   2.1888   2.7906   3.0927   4.5083
     5.1413   5.4636   8.1405   8.7532   8.8619   9.9840

          k = 0.0000 0.0000 0.1868 (  2201 PWs)   bands (ev):

    -8.2236  -6.1487  -2.3266  -0.0700   1.9153   3.2742   3.6301   4.3893
     4.5060   6.0734   8.3950   8.5100   9.7448   9.8481

          k = 0.0000 0.0000 0.2801 (  2204 PWs)   bands (ev):

    -7.8192  -6.7039  -2.0173  -0.7779   2.1663   3.5225   3.5483   4.1689
     4.7544   6.4308   8.3122   8.6191   9.6890  10.4791

          k = 0.0000 0.0000-0.3735 (  2208 PWs)   bands (ev):

    -7.2935  -7.2935  -1.4784  -1.4784   2.7431   2.7431   3.8684   3.8684
     5.7860   5.7860   8.5589   8.5589   9.9366   9.9366

          k = 0.1656 0.0521 0.0000 (  2220 PWs)   bands (ev):

    -8.2267  -5.3141  -2.6478   0.7275   1.5319   1.8682   2.7071   3.9353
     4.6817   6.1777   8.3161   8.9276  10.2791  10.6834

          k = 0.1656 0.0521 0.0934 (  2218 PWs)   bands (ev):

    -8.1424  -5.4557  -2.6021   0.5257   1.6105   1.6818   3.2010   3.5470
     5.1121   5.6932   8.6356   9.0816  10.1706  10.7355

          k = 0.1656 0.0521 0.1868 (  2210 PWs)   bands (ev):

    -7.8939  -5.8510  -2.4159  -0.0375   1.5874   1.8910   3.0345   4.1491
     4.8353   5.4660   9.1318   9.4333  10.0730  10.7043

          k = 0.1656 0.0521 0.2801 (  2206 PWs)   bands (ev):

    -7.4963  -6.4006  -2.0350  -0.7670   1.7624   2.2564   2.7042   3.8466
     5.0994   5.5575   9.0934   9.8160  10.5394  10.9148

          k = 0.1656 0.0521-0.3735 (  2206 PWs)   bands (ev):

    -6.9800  -6.9800  -1.4678  -1.4678   2.0899   2.0899   3.0877   3.0877
     5.5053   5.5053   9.3751   9.3751  11.0115  11.0115

          k = 0.3312 0.1041 0.0000 (  2218 PWs)   bands (ev):

    -7.2429  -4.3953  -3.8839  -0.7838   1.2969   1.5079   3.3268   4.0346
     4.6466   5.6782   7.6761   8.8498   9.1462   9.5414

          k = 0.3312 0.1041 0.0934 (  2212 PWs)   bands (ev):

    -7.1643  -4.6371  -3.6464  -0.8771   1.0167   1.5999   3.5110   3.7661
     4.4961   5.6554   8.1992   8.6494   9.1986   9.5971

          k = 0.3312 0.1041 0.1868 (  2208 PWs)   bands (ev):

    -6.9338  -5.0739  -3.2209  -1.1615   0.7211   1.6015   3.0372   3.9044
     4.3163   5.5532   8.3976   9.1468   9.7010  10.4174

          k = 0.3312 0.1041 0.2801 (  2200 PWs)   bands (ev):

    -6.5686  -5.5816  -2.7157  -1.6143   0.6864   1.3381   2.8649   3.6070
     4.4383   5.2467   9.0470   9.6942  10.5138  10.7414

          k = 0.3312 0.1041-0.3735 (  2200 PWs)   bands (ev):

    -6.1010  -6.1010  -2.1611  -2.1611   0.9327   0.9327   3.1527   3.1527
     4.7951   4.7951  10.0531  10.0531  10.3511  10.3511

          k =-0.4968-0.1562 0.0000 (  2200 PWs)   bands (ev):

    -5.6983  -5.6983  -2.8683  -2.8683   1.8193   1.8193   3.9274   3.9274
     4.6341   4.6341   8.0970   8.0970   8.7258   8.7258

          k =-0.4968-0.1562 0.0934 (  2198 PWs)   bands (ev):

    -5.6465  -5.6465  -2.9026  -2.9026   1.6763   1.6763   3.5622   3.5622
     4.9275   4.9275   8.0379   8.0379   9.4365   9.4365

          k =-0.4968-0.1562 0.1868 (  2206 PWs)   bands (ev):

    -5.5092  -5.5092  -3.0092  -3.0092   1.4556   1.4556   2.9404   2.9404
     5.2104   5.2104   8.6548   8.6548   9.8166   9.8166

          k =-0.4968-0.1562 0.2801 (  2212 PWs)   bands (ev):

    -5.3483  -5.3483  -3.1571  -3.1571   1.4393   1.4393   2.2953   2.2953
     5.3707   5.3707   9.0863   9.0863  10.2275  10.2275

          k =-0.4968-0.1562-0.3735 (  2216 PWs)   bands (ev):

    -5.2717  -5.2717  -3.2336  -3.2336   1.6230   1.6230   1.8701   1.8701
     5.4344   5.4344   8.9786   8.9786  11.0355  11.0355

          k = 0.3312 0.0000 0.0000 (  2212 PWs)   bands (ev):

    -7.2825  -4.2858  -3.8609  -0.8655   1.2915   1.3782   3.4142   4.1956
     4.4840   5.7411   7.9133   8.5865   9.0086   9.2574

          k = 0.3312 0.0000 0.0934 (  2218 PWs)   bands (ev):

    -7.2030  -4.5723  -3.5873  -0.9405   1.0929   1.4227   3.6824   3.7941
     4.3401   5.5809   8.4773   8.5212   9.0374   9.3318

          k = 0.3312 0.0000 0.1868 (  2210 PWs)   bands (ev):

    -6.9695  -5.0475  -3.1455  -1.1810   0.8456   1.5167   3.0871   3.8375
     4.1425   5.3123   8.2665   9.6661   9.7320  10.0616

          k = 0.3312 0.0000 0.2801 (  2194 PWs)   bands (ev):

    -6.5983  -5.5826  -2.6417  -1.5886   0.8443   1.4477   2.7242   3.4565
     4.1772   4.9386   8.9923  10.2339  10.6199  10.8479

          k = 0.3312 0.0000-0.3735 (  2198 PWs)   bands (ev):

    -6.1200  -6.1200  -2.1034  -2.1034   1.1045   1.1045   2.9638   2.9638
     4.4830   4.4830  10.1674  10.1674  10.7185  10.7185

          k = 0.4968 0.0521 0.0000 (  2200 PWs)   bands (ev):

    -5.7604  -5.6305  -3.0465  -2.6874   1.7439   1.8813   3.9049   3.9554
     4.3492   4.9558   7.9820   8.0778   8.7675   8.8791

          k = 0.4968 0.0521 0.0934 (  2200 PWs)   bands (ev):

    -5.7059  -5.5820  -3.0619  -2.7428   1.5876   1.7794   3.4943   3.5399
     4.7116   5.3053   7.7838   8.1183   9.3985   9.5213

          k = 0.4968 0.0521 0.1868 (  2206 PWs)   bands (ev):

    -5.5591  -5.4557  -3.1182  -2.9025   1.3164   1.6415   2.7455   3.0830
     4.9151   5.5800   8.2791   8.8119   9.5894  10.1885

          k = 0.4968 0.0521 0.2801 (  2212 PWs)   bands (ev):

    -5.3790  -5.3164  -3.2058  -3.1087   1.2381   1.6775   2.0674   2.5572
     5.0560   5.5304   9.0165   9.3998  10.1026  10.4744

          k = 0.4968 0.0521-0.3735 (  2210 PWs)   bands (ev):

    -5.2718  -5.2718  -3.2325  -3.2325   1.4673   1.4673   2.0726   2.0726
     5.2997   5.2997   9.2710   9.2710  11.0308  11.0308

          k =-0.3312-0.2083 0.0000 (  2202 PWs)   bands (ev):

    -7.1568  -4.6130  -3.9277  -0.6097   1.2942   1.8118   3.0482   3.7419
     5.0683   5.5917   7.5760   9.0857   9.1447   9.7480

          k =-0.3312-0.2083 0.0934 (  2193 PWs)   bands (ev):

    -7.0803  -4.7799  -3.7485  -0.7424   0.9514   1.8247   3.2965   3.6084
     4.9620   5.6892   8.0180   8.8205   9.4196   9.6042

          k =-0.3312-0.2083 0.1868 (  2199 PWs)   bands (ev):

    -6.8566  -5.1356  -3.3610  -1.1198   0.5594   1.5786   3.1225   3.9460
     4.8973   5.8231   8.3516   9.0281   9.6747  10.4529

          k =-0.3312-0.2083 0.2801 (  2205 PWs)   bands (ev):

    -6.5050  -5.5827  -2.8588  -1.6665   0.4556   1.1047   3.1803   3.8669
     5.1021   5.7642   8.6959   9.5734   9.9767  10.5371

          k =-0.3312-0.2083-0.3735 (  2210 PWs)   bands (ev):

    -6.0617  -6.0617  -2.2761  -2.2761   0.6667   0.6667   3.4987   3.4987
     5.4533   5.4533   9.3434   9.3434  10.3355  10.3355

          k =-0.1656-0.1562 0.0000 (  2212 PWs)   bands (ev):

    -8.1523  -5.5065  -2.6285   1.0009   1.4684   1.8882   2.5297   3.7183
     4.9972   6.5884   8.2046   9.0146  10.1484  10.7436

          k =-0.1656-0.1562 0.0934 (  2213 PWs)   bands (ev):

    -8.0695  -5.6091  -2.6361   0.5603   1.5734   1.8404   3.0239   3.5887
     5.2775   6.2223   8.3247   9.2392  10.1738  10.8409

          k =-0.1656-0.1562 0.1868 (  2203 PWs)   bands (ev):

    -7.8262  -5.9228  -2.5595  -0.2052   1.4516   2.2918   3.0868   4.1424
     5.4642   5.6403   8.8081   9.6644   9.9568  10.6201

          k =-0.1656-0.1562 0.2801 (  2210 PWs)   bands (ev):

    -7.4394  -6.4045  -2.2658  -1.0217   1.6309   2.3469   3.2045   4.4588
     5.2314   5.7303   9.3024   9.6490  10.2225  10.5876

          k =-0.1656-0.1562-0.3735 (  2210 PWs)   bands (ev):

    -6.9442  -6.9442  -1.7367  -1.7367   1.9825   1.9825   3.7916   3.7916
     5.6478   5.6478   9.4645   9.4645  10.6183  10.6183

          k = 0.0000-0.1041 0.0000 (  2236 PWs)   bands (ev):

    -8.5198  -5.7318  -2.3697   0.5705   2.3709   2.3924   2.9914   4.6047
     4.6563   6.3828   8.0594   8.1808   9.0932  10.0863

          k = 0.0000-0.1041 0.0934 (  2222 PWs)   bands (ev):

    -8.4350  -5.8463  -2.4273   0.4348   2.0346   2.8457   3.0558   4.5627
     5.1644   5.8477   8.1015   8.7516   8.9563   9.9597

          k = 0.0000-0.1041 0.1868 (  2217 PWs)   bands (ev):

    -8.1853  -6.1903  -2.4294  -0.1584   2.0883   3.2415   3.6418   4.4248
     4.9214   6.0641   8.3320   8.5698   9.6807   9.7575

          k = 0.0000-0.1041 0.2801 (  2207 PWs)   bands (ev):

    -7.7869  -6.7060  -2.1817  -0.9555   2.5156   3.5242   3.9322   4.1805
     4.7512   6.4070   8.3433   8.6042   9.7399  10.5779

          k = 0.0000-0.1041-0.3735 (  2198 PWs)   bands (ev):

    -7.2729  -7.2729  -1.6689  -1.6689   3.1547   3.1547   3.8588   3.8588
     5.7536   5.7536   8.5843   8.5843  10.0170  10.0170

          k = 0.6625 0.0000 0.0000 (  2204 PWs)   bands (ev):

    -7.1095  -4.7225  -3.9487  -0.5155   1.2832   2.0263   2.8304   3.6094
     5.3058   5.5604   7.9457   8.4202   9.1426   9.9057

          k = 0.6625 0.0000 0.0934 (  2199 PWs)   bands (ev):

    -7.0341  -4.8583  -3.7926  -0.6689   0.9235   1.9062   3.3089   3.4264
     5.3314   5.6026   8.3329   8.3998   9.4051   9.5542

          k = 0.6625 0.0000 0.1868 (  2198 PWs)   bands (ev):

    -6.8145  -5.1717  -3.4259  -1.0958   0.4901   1.5267   3.2455   3.9071
     5.4193   5.7671   8.0865   9.3547   9.4696  10.5128

          k = 0.6625 0.0000 0.2801 (  2209 PWs)   bands (ev):

    -6.4708  -5.5853  -2.9282  -1.6926   0.3597   0.9997   3.3608   3.9674
     5.5969   5.9192   8.2873   9.7762   9.8786  10.4522

          k = 0.6625 0.0000-0.3735 (  2218 PWs)   bands (ev):

    -6.0415  -6.0415  -2.3335  -2.3335   0.5576   0.5576   3.6727   3.6727
     5.8117   5.8117   9.0072   9.0072  10.3760  10.3760

          k =-0.1656-0.2603 0.0000 (  2211 PWs)   bands (ev):

    -8.0692  -5.7000  -2.6089   1.4206   1.4797   1.7944   2.1157   3.6116
     5.7031   6.9211   7.8803   8.6620  10.0672  10.7656

          k =-0.1656-0.2603 0.0934 (  2209 PWs)   bands (ev):

    -7.9882  -5.7698  -2.6565   0.5696   1.4263   2.1974   2.8005   3.5560
     5.8289   6.6455   8.0898   8.7898  10.1379  10.8588

          k =-0.1656-0.2603 0.1868 (  2205 PWs)   bands (ev):

    -7.7511  -6.0059  -2.6717  -0.3776   1.3385   2.5788   3.4479   3.9264
     5.9605   6.1295   8.5705   9.3134   9.9890  10.6696

          k =-0.1656-0.2603 0.2801 (  2197 PWs)   bands (ev):

    -7.3772  -6.4138  -2.4609  -1.2564   1.5406   2.3440   3.9314   4.7287
     5.5921   6.0418   9.1425   9.5499   9.7628  10.5240

          k =-0.1656-0.2603-0.3735 (  2194 PWs)   bands (ev):

    -6.9069  -6.9069  -1.9738  -1.9738   1.9173   1.9173   4.5110   4.5110
     5.8410   5.8410   9.3373   9.3373   9.9611   9.9611

          k = 0.0000-0.2083 0.0000 (  2220 PWs)   bands (ev):

    -8.4279  -5.9555  -2.3168   0.9496   2.0345   2.0710   2.9219   4.7210
     5.2126   7.0907   7.8908   8.0354   9.2311  10.0096

          k = 0.0000-0.2083 0.0934 (  2211 PWs)   bands (ev):

    -8.3450  -6.0310  -2.4447   0.5174   1.9657   2.7705   2.9887   4.6648
     5.5398   6.5997   7.9734   8.4575   9.0447   9.9201

          k = 0.0000-0.2083 0.1868 (  2207 PWs)   bands (ev):

    -8.1019  -6.2841  -2.5862  -0.3961   2.6030   3.1820   3.5726   4.4896
     5.7679   6.2333   8.2076   8.5858   9.1422   9.7957

          k = 0.0000-0.2083 0.2801 (  2206 PWs)   bands (ev):

    -7.7172  -6.7152  -2.4521  -1.2831   3.3292   3.4797   4.1999   4.4623
     5.0084   6.3791   8.4235   8.4967   9.8516   9.8545

          k = 0.0000-0.2083-0.3735 (  2200 PWs)   bands (ev):

    -7.2304  -7.2304  -1.9964  -1.9964   3.8399   3.8399   4.0590   4.0590
     5.6384   5.6384   8.6103   8.6103  10.1882  10.1882

          k =-0.9937 0.0000 0.0000 (  2202 PWs)   bands (ev):

    -8.3769  -6.0687  -2.2891   1.3259   1.6842   1.8859   2.8900   4.7767
     5.8346   7.4612   7.4739   7.8242   9.2673   9.9741

          k =-0.9937 0.0000 0.0934 (  2196 PWs)   bands (ev):

    -8.2952  -6.1274  -2.4444   0.5007   2.0844   2.6016   2.9579   4.7133
     6.0725   6.8903   7.8468   8.0546   9.0583   9.9041

          k =-0.9937 0.0000 0.1868 (  2220 PWs)   bands (ev):

    -8.0559  -6.3372  -2.6453  -0.5255   3.0350   3.1546   3.3656   4.5194
     6.2221   6.5378   8.0172   8.6021   8.7103   9.8207

          k =-0.9937 0.0000 0.2801 (  2196 PWs)   bands (ev):

    -7.6793  -6.7230  -2.5661  -1.4354   3.4590   4.0380   4.1743   4.2080
     5.5193   6.3641   8.3042   8.5399   9.4282   9.9188

          k =-0.9937 0.0000-0.3735 (  2204 PWs)   bands (ev):

    -7.2084  -7.2084  -2.1415  -2.1415   3.8307   3.8307   4.6651   4.6651
     5.4744   5.4744   8.5824   8.5824   9.9417   9.9417

     the Fermi energy is     7.4639 ev

!    total energy              =    -222.13803054 Ry
     Harris-Foulkes estimate   =    -222.13803054 Ry
     estimated scf accuracy    <          2.9E-09 Ry

     total all-electron energy =      -222.138031 Ry

     The total energy is the sum of the following terms:

     one-electron contribution =       8.09920796 Ry
     hartree contribution      =       6.28942392 Ry
     xc contribution           =     -19.90242983 Ry
     ewald contribution        =     -51.16497835 Ry
     one-center paw contrib.   =    -165.45923046 Ry
     smearing contrib. (-TS)   =      -0.00002378 Ry

     convergence has been achieved in  10 iterations

     negative rho (up, down):  4.457E-02 0.000E+00

     Forces acting on atoms (cartesian axes, Ry/au):

     atom    1 type  1   force =     0.00000000    0.00702005   -0.01101825
     atom    2 type  1   force =    -0.00000000   -0.00702005   -0.01101825
     atom    3 type  1   force =     0.00000000    0.00702005    0.01101825
     atom    4 type  1   force =     0.00000000   -0.00702005    0.01101825

     Total force =     0.026129     Total SCF correction =     0.000110


     Computing stress (Cartesian axis) and pressure


     negative rho (up, down):  4.457E-02 0.000E+00
          total   stress  (Ry/bohr**3)                   (kbar)     P=   18.00
   0.00001912   0.00000000   0.00000000          2.81      0.00      0.00
   0.00000000   0.00018741   0.00000000          0.00     27.57      0.00
   0.00000000   0.00000000   0.00016053          0.00      0.00     23.62


     number of scf cycles    =   2
     number of bfgs steps    =   1

     enthalpy old            =    -222.1313598011 Ry
     enthalpy new            =    -222.1380305364 Ry

     CASE: enthalpy_new < enthalpy_old

     new trust radius        =       0.0363819585 bohr
     new conv_thr            =       0.0000000011 Ry

     new unit-cell volume =    538.78872 a.u.^3 (    79.84025 Ang^3 )
     density =      2.57680 g/cm^3

CELL_PARAMETERS (alat=  6.26600000)
   0.503664621  -1.613146468   0.000000000
   0.503664621   1.613146468   0.000000000
   0.000000000   0.000000000   1.347727464

ATOMIC_POSITIONS (crystal)
P        0.400521932   0.599478068   0.584199621
P        0.099478068   0.900521932   0.084199621
P        0.900521932   0.099478068   0.915800379
P        0.599478068   0.400521932   0.415800379



     Writing output data file relax.save/
     Check: negative starting charge=   -0.031908
     NEW-OLD atomic charge density approx. for the potential

     Check: negative/imaginary core charge=   -0.000011    0.000000
     Check: negative starting charge=   -0.032139

     negative rho (up, down):  4.516E-02 0.000E+00
     extrapolated charge   20.31061, renormalised to   20.00000

     total cpu time spent up to now is       32.9 secs

     Self-consistent Calculation

     iteration #  1     ecut=    40.00 Ry     beta= 0.70
     Davidson diagonalization with overlap
     ethr =  1.00E-06,  avg # of iterations =  5.8

     negative rho (up, down):  4.403E-02 0.000E+00

     total cpu time spent up to now is       35.7 secs

     total energy              =    -222.13556860 Ry
     Harris-Foulkes estimate   =    -222.25896794 Ry
     estimated scf accuracy    <       0.00309611 Ry

     iteration #  2     ecut=    40.00 Ry     beta= 0.70
     Davidson diagonalization with overlap
     ethr =  1.55E-05,  avg # of iterations =  3.4

     negative rho (up, down):  4.396E-02 0.000E+00

     total cpu time spent up to now is       37.8 secs

     total energy              =    -222.13865867 Ry
     Harris-Foulkes estimate   =    -222.14260274 Ry
     estimated scf accuracy    <       0.01060960 Ry

     iteration #  3     ecut=    40.00 Ry     beta= 0.70
     Davidson diagonalization with overlap
     ethr =  1.55E-05,  avg # of iterations =  2.0

     negative rho (up, down):  4.391E-02 0.000E+00

     total cpu time spent up to now is       39.1 secs

     total energy              =    -222.13948830 Ry
     Harris-Foulkes estimate   =    -222.13971057 Ry
     estimated scf accuracy    <       0.00096968 Ry

     iteration #  4     ecut=    40.00 Ry     beta= 0.70
     Davidson diagonalization with overlap
     ethr =  4.85E-06,  avg # of iterations =  1.0

     negative rho (up, down):  4.394E-02 0.000E+00

     total cpu time spent up to now is       40.0 secs

     total energy              =    -222.13933404 Ry
     Harris-Foulkes estimate   =    -222.13951880 Ry
     estimated scf accuracy    <       0.00045376 Ry

     iteration #  5     ecut=    40.00 Ry     beta= 0.70
     Davidson diagonalization with overlap
     ethr =  2.27E-06,  avg # of iterations =  2.3

     negative rho (up, down):  4.391E-02 0.000E+00

     total cpu time spent up to now is       41.2 secs

     total energy              =    -222.13940614 Ry
     Harris-Foulkes estimate   =    -222.13940845 Ry
     estimated scf accuracy    <       0.00001227 Ry

     iteration #  6     ecut=    40.00 Ry     beta= 0.70
     Davidson diagonalization with overlap
     ethr =  6.14E-08,  avg # of iterations =  1.8

     negative rho (up, down):  4.388E-02 0.000E+00

     total cpu time spent up to now is       42.3 secs

     total energy              =    -222.13940220 Ry
     Harris-Foulkes estimate   =    -222.13940713 Ry
     estimated scf accuracy    <       0.00000842 Ry

     iteration #  7     ecut=    40.00 Ry     beta= 0.70
     Davidson diagonalization with overlap
     ethr =  4.21E-08,  avg # of iterations =  2.0

     negative rho (up, down):  4.387E-02 0.000E+00

     total cpu time spent up to now is       43.9 secs

     total energy              =    -222.13940470 Ry
     Harris-Foulkes estimate   =    -222.13940485 Ry
     estimated scf accuracy    <       0.00000052 Ry

     iteration #  8     ecut=    40.00 Ry     beta= 0.70
     Davidson diagonalization with overlap
     ethr =  2.60E-09,  avg # of iterations =  2.0

     negative rho (up, down):  4.387E-02 0.000E+00

     total cpu time spent up to now is       45.4 secs

     total energy              =    -222.13940470 Ry
     Harris-Foulkes estimate   =    -222.13940476 Ry
     estimated scf accuracy    <       0.00000014 Ry

     iteration #  9     ecut=    40.00 Ry     beta= 0.70
     Davidson diagonalization with overlap
     ethr =  7.03E-10,  avg # of iterations =  2.0

     negative rho (up, down):  4.387E-02 0.000E+00

     total cpu time spent up to now is       46.9 secs

     End of self-consistent calculation

          k = 0.0000 0.0000 0.0000 (  2215 PWs)   bands (ev):

    -8.5482  -5.6822  -2.5108   0.3492   2.2564   2.3156   3.0633   4.3605
     4.5311   5.8207   7.8150   8.1468   8.9157   9.9450

          k = 0.0000 0.0000 0.0927 (  2239 PWs)   bands (ev):

    -8.4639  -5.8122  -2.5300   0.2538   1.9151   2.6537   3.1255   4.4990
     4.9210   5.2660   8.1061   8.5429   8.7867   9.8034

          k = 0.0000 0.0000 0.1855 (  2201 PWs)   bands (ev):

    -8.2156  -6.1875  -2.4622  -0.2023   1.7095   3.3043   3.4890   4.3295
     4.3883   5.8561   8.3635   8.4175   9.5653   9.5851

          k = 0.0000 0.0000 0.2782 (  2204 PWs)   bands (ev):

    -7.8182  -6.7262  -2.1657  -0.9343   1.9966   3.3517   3.5738   4.1784
     4.6229   6.2662   8.1782   8.5442   9.5048  10.2713

          k = 0.0000 0.0000-0.3710 (  2208 PWs)   bands (ev):

    -7.3025  -7.3025  -1.6352  -1.6352   2.5797   2.5797   3.8871   3.8871
     5.6530   5.6530   8.4315   8.4315   9.7429   9.7429

          k = 0.1655 0.0517 0.0000 (  2220 PWs)   bands (ev):

    -8.2147  -5.3776  -2.7439   0.6547   1.3476   1.8743   2.5730   3.8118
     4.4920   5.9555   8.1178   8.7285  10.2541  10.4895

          k = 0.1655 0.0517 0.0927 (  2218 PWs)   bands (ev):

    -8.1318  -5.5118  -2.7062   0.4209   1.4437   1.6772   3.0890   3.4360
     4.9306   5.4871   8.4288   8.8580  10.0366  10.6027

          k = 0.1655 0.0517 0.1855 (  2210 PWs)   bands (ev):

    -7.8875  -5.8909  -2.5368  -0.1793   1.5660   1.7724   2.9653   4.0158
     4.6564   5.3023   8.8994   9.2094   9.8423  10.5814

          k = 0.1655 0.0517 0.2782 (  2206 PWs)   bands (ev):

    -7.4969  -6.4244  -2.1715  -0.9190   1.7576   2.1795   2.6098   3.6737
     4.9669   5.4065   8.8923   9.6025  10.3531  10.6650

          k = 0.1655 0.0517-0.3710 (  2206 PWs)   bands (ev):

    -6.9907  -6.9907  -1.6154  -1.6154   2.0882   2.0882   2.9222   2.9222
     5.3634   5.3634   9.1886   9.1886  10.8488  10.8488

          k = 0.3309 0.1033 0.0000 (  2218 PWs)   bands (ev):

    -7.2363  -4.4629  -3.9231  -0.8852   1.2605   1.4389   3.1987   3.8527
     4.4905   5.4973   7.4417   8.6480   8.8958   9.2835

          k = 0.3309 0.1033 0.0927 (  2212 PWs)   bands (ev):

    -7.1592  -4.6916  -3.6974  -0.9763   0.9720   1.5336   3.3642   3.6123
     4.3415   5.4707   7.9531   8.4077   8.9871   9.3689

          k = 0.3309 0.1033 0.1855 (  2208 PWs)   bands (ev):

    -6.9331  -5.1150  -3.2819  -1.2547   0.6711   1.5362   2.8741   3.7695
     4.1630   5.3666   8.1664   8.9101   9.4685  10.1798

          k = 0.3309 0.1033 0.2782 (  2200 PWs)   bands (ev):

    -6.5751  -5.6098  -2.7850  -1.6998   0.6296   1.2714   2.7148   3.4635
     4.2802   5.0655   8.8196   9.4806  10.2491  10.4917

          k = 0.3309 0.1033-0.3710 (  2200 PWs)   bands (ev):

    -6.1174  -6.1174  -2.2384  -2.2384   0.8686   0.8686   3.0089   3.0089
     4.6249   4.6249   9.8165   9.8165  10.1176  10.1176

          k =-0.4964-0.1550 0.0000 (  2200 PWs)   bands (ev):

    -5.7046  -5.7046  -2.9455  -2.9455   1.7627   1.7627   3.7899   3.7899
     4.4678   4.4678   7.8673   7.8673   8.4567   8.4567

          k =-0.4964-0.1550 0.0927 (  2198 PWs)   bands (ev):

    -5.6548  -5.6548  -2.9749  -2.9749   1.6152   1.6152   3.4215   3.4215
     4.7549   4.7549   7.8166   7.8166   9.1674   9.1674

          k =-0.4964-0.1550 0.1855 (  2206 PWs)   bands (ev):

    -5.5231  -5.5231  -3.0680  -3.0680   1.3828   1.3828   2.8004   2.8004
     5.0222   5.0222   8.4454   8.4454   9.5858   9.5858

          k =-0.4964-0.1550 0.2782 (  2212 PWs)   bands (ev):

    -5.3697  -5.3697  -3.1991  -3.1991   1.3536   1.3536   2.1589   2.1589
     5.1720   5.1720   8.8939   8.8939   9.9910   9.9910

          k =-0.4964-0.1550-0.3710 (  2216 PWs)   bands (ev):

    -5.2973  -5.2973  -3.2675  -3.2675   1.5537   1.5537   1.7136   1.7136
     5.2315   5.2315   8.7959   8.7959  10.7634  10.7634

          k = 0.3309 0.0000 0.0000 (  2212 PWs)   bands (ev):

    -7.2759  -4.3543  -3.9010  -0.9641   1.2553   1.3090   3.2698   4.0159
     4.3443   5.5459   7.6696   8.3888   8.7579   9.0413

          k = 0.3309 0.0000 0.0927 (  2218 PWs)   bands (ev):

    -7.1979  -4.6263  -3.6401  -1.0370   1.0479   1.3542   3.5429   3.6154
     4.2044   5.3902   8.2217   8.2776   8.8366   9.1335

          k = 0.3309 0.0000 0.1855 (  2210 PWs)   bands (ev):

    -6.9688  -5.0884  -3.2066  -1.2717   0.7901   1.4520   2.9160   3.6960
     4.0031   5.1327   8.0424   9.3923   9.5245   9.8452

          k = 0.3309 0.0000 0.2782 (  2194 PWs)   bands (ev):

    -6.6048  -5.6109  -2.7096  -1.6715   0.7800   1.3830   2.5643   3.3123
     4.0298   4.7705   8.7702  10.0136  10.3447  10.6088

          k = 0.3309 0.0000-0.3710 (  2198 PWs)   bands (ev):

    -6.1364  -6.1364  -2.1784  -2.1784   1.0349   1.0349   2.8173   2.8173
     4.3258   4.3258   9.9270   9.9270  10.4807  10.4807

          k = 0.4964 0.0517 0.0000 (  2200 PWs)   bands (ev):

    -5.7665  -5.6369  -3.1219  -2.7665   1.6866   1.8247   3.7782   3.7932
     4.2064   4.7859   7.7305   7.8530   8.5028   8.5995

          k = 0.4964 0.0517 0.0927 (  2200 PWs)   bands (ev):

    -5.7138  -5.5904  -3.1333  -2.8161   1.5274   1.7166   3.3379   3.4138
     4.5543   5.1203   7.5558   7.8948   9.1374   9.2525

          k = 0.4964 0.0517 0.1855 (  2206 PWs)   bands (ev):

    -5.5726  -5.4699  -3.1776  -2.9605   1.2468   1.5652   2.5978   2.9536
     4.7344   5.3770   8.0714   8.5965   9.4048   9.9269

          k = 0.4964 0.0517 0.2782 (  2212 PWs)   bands (ev):

    -5.4000  -5.3382  -3.2490  -3.1495   1.1545   1.5984   1.9182   2.4247
     4.8673   5.3248   8.8125   9.2153   9.8673  10.2343

          k = 0.4964 0.0517-0.3710 (  2210 PWs)   bands (ev):

    -5.2974  -5.2974  -3.2665  -3.2665   1.3741   1.3741   1.9392   1.9392
     5.1025   5.1025   9.0761   9.0761  10.7592  10.7592

          k =-0.3309-0.2066 0.0000 (  2202 PWs)   bands (ev):

    -7.1499  -4.6791  -3.9652  -0.7173   1.2566   1.7427   2.9411   3.5622
     4.8969   5.4274   7.3327   8.8051   8.9429   9.4655

          k =-0.3309-0.2066 0.0927 (  2193 PWs)   bands (ev):

    -7.0749  -4.8354  -3.7962  -0.8474   0.9094   1.7570   3.1623   3.4675
     4.7860   5.5157   7.7670   8.5611   9.1512   9.3899

          k =-0.3309-0.2066 0.1855 (  2199 PWs)   bands (ev):

    -6.8557  -5.1771  -3.4214  -1.2185   0.5162   1.5109   2.9733   3.8256
     4.7156   5.6341   8.1039   8.7781   9.4168  10.2296

          k =-0.3309-0.2066 0.2782 (  2205 PWs)   bands (ev):

    -6.5115  -5.6111  -2.9302  -1.7572   0.4088   1.0421   3.0381   3.7311
     4.9152   5.5653   8.4587   9.3555   9.7373  10.2809

          k =-0.3309-0.2066-0.3710 (  2210 PWs)   bands (ev):

    -6.0781  -6.0781  -2.3576  -2.3576   0.6127   0.6127   3.3581   3.3581
     5.2572   5.2572   9.1117   9.1117  10.1095  10.1095

          k =-0.1655-0.1550 0.0000 (  2212 PWs)   bands (ev):

    -8.1400  -5.5687  -2.7228   0.9264   1.2814   1.8736   2.4161   3.6241
     4.7828   6.3671   7.9975   8.7827  10.1338  10.5540

          k =-0.1655-0.1550 0.0927 (  2213 PWs)   bands (ev):

    -8.0586  -5.6648  -2.7369   0.4303   1.5077   1.7476   2.9425   3.4791
     5.0741   6.0073   8.1166   8.9871  10.1095  10.6367

          k =-0.1655-0.1550 0.1855 (  2203 PWs)   bands (ev):

    -7.8196  -5.9633  -2.6750  -0.3573   1.4393   2.1954   3.0080   4.0142
     5.2647   5.4592   8.5718   9.4412   9.6919  10.5432

          k =-0.1655-0.1550 0.2782 (  2210 PWs)   bands (ev):

    -7.4399  -6.4287  -2.3962  -1.1730   1.6295   2.3336   3.0443   4.2825
     5.0864   5.5694   9.0972   9.4028   9.9797  10.4052

          k =-0.1655-0.1550-0.3710 (  2210 PWs)   bands (ev):

    -6.9548  -6.9548  -1.8793  -1.8793   1.9821   1.9821   3.6160   3.6160
     5.5009   5.5009   9.2695   9.2695  10.3665  10.3665

          k = 0.0000-0.1033 0.0000 (  2236 PWs)   bands (ev):

    -8.5061  -5.7932  -2.4849   0.4967   2.0664   2.2683   3.0245   4.4426
     4.5928   6.1645   7.9615   8.0366   9.0161   9.9030

          k = 0.0000-0.1033 0.0927 (  2222 PWs)   bands (ev):

    -8.4227  -5.9012  -2.5468   0.3355   1.7987   2.6941   3.0880   4.5540
     4.9377   5.6389   8.0844   8.5157   8.8692   9.7780

          k = 0.0000-0.1033 0.1855 (  2217 PWs)   bands (ev):

    -8.1772  -6.2294  -2.5598  -0.3032   1.9024   3.2712   3.5006   4.4244
     4.7290   5.8437   8.2960   8.4753   9.4128   9.5756

          k = 0.0000-0.1033 0.2782 (  2207 PWs)   bands (ev):

    -7.7858  -6.7285  -2.3239  -1.1113   2.3461   3.5494   3.7527   4.1902
     4.6164   6.2420   8.2032   8.5274   9.5526  10.3667

          k = 0.0000-0.1033-0.3710 (  2198 PWs)   bands (ev):

    -7.2819  -7.2819  -1.8206  -1.8206   2.9837   2.9837   3.8774   3.8774
     5.6201   5.6201   8.4549   8.4549   9.8200   9.8200

          k = 0.6618 0.0000 0.0000 (  2204 PWs)   bands (ev):

    -7.1023  -4.7881  -3.9855  -0.6264   1.2446   1.9575   2.7295   3.4331
     5.1359   5.4010   7.6776   8.1416   8.9413   9.6216

          k = 0.6618 0.0000 0.0927 (  2199 PWs)   bands (ev):

    -7.0285  -4.9144  -3.8388  -0.7772   0.8821   1.8367   3.2080   3.2629
     5.1483   5.4381   8.0592   8.1277   9.1361   9.3509

          k = 0.6618 0.0000 0.1855 (  2198 PWs)   bands (ev):

    -6.8133  -5.2136  -3.4859  -1.1977   0.4491   1.4595   3.0974   3.7942
     5.2201   5.5890   7.8279   9.0994   9.1884  10.3101

          k = 0.6618 0.0000 0.2782 (  2209 PWs)   bands (ev):

    -6.4771  -5.6138  -3.0004  -1.7859   0.3166   0.9409   3.2181   3.8369
     5.3887   5.7208   8.0461   9.5462   9.6406  10.1961

          k = 0.6618 0.0000-0.3710 (  2218 PWs)   bands (ev):

    -6.0578  -6.0578  -2.4169  -2.4169   0.5082   0.5082   3.5331   3.5331
     5.6019   5.6019   8.7721   8.7721  10.1614  10.1614

          k =-0.1655-0.2583 0.0000 (  2211 PWs)   bands (ev):

    -8.0563  -5.7612  -2.7013   1.2554   1.3423   1.7955   2.0183   3.5435
     5.4670   6.7042   7.6195   8.4590  10.0621  10.5795

          k =-0.1655-0.2583 0.0927 (  2209 PWs)   bands (ev):

    -7.9768  -5.8255  -2.7542   0.4073   1.4078   2.0779   2.7228   3.4713
     5.6038   6.4256   7.8362   8.5644  10.1083  10.6852

          k =-0.1655-0.2583 0.1855 (  2205 PWs)   bands (ev):

    -7.7440  -6.0473  -2.7824  -0.5368   1.3362   2.5262   3.3241   3.8099
     5.7546   5.9201   8.3081   9.0594   9.7818  10.5764

          k =-0.1655-0.2583 0.2782 (  2197 PWs)   bands (ev):

    -7.3774  -6.4385  -2.5862  -1.4063   1.5437   2.3379   3.7546   4.5932
     5.3969   5.8673   8.8606   9.3425   9.5250  10.2862

          k =-0.1655-0.2583-0.3710 (  2194 PWs)   bands (ev):

    -6.9176  -6.9176  -2.1123  -2.1123   1.9194   1.9194   4.3295   4.3295
     5.6826   5.6826   9.0833   9.0833   9.7512   9.7512

          k = 0.0000-0.2066 0.0000 (  2220 PWs)   bands (ev):

    -8.4137  -6.0156  -2.4307   0.8722   1.7404   1.9676   2.9544   4.7099
     4.9717   6.8624   7.7678   7.8731   9.1447   9.8260

          k = 0.0000-0.2066 0.0927 (  2211 PWs)   bands (ev):

    -8.3322  -6.0856  -2.5600   0.3795   1.8042   2.5989   3.0202   4.6569
     5.2958   6.3724   7.9475   8.1951   8.9531   9.7362

          k = 0.0000-0.2066 0.1855 (  2207 PWs)   bands (ev):

    -8.0933  -6.3241  -2.7085  -0.5527   2.4466   3.2110   3.4206   4.4900
     5.5488   6.0077   8.1564   8.4646   8.8886   9.6085

          k = 0.0000-0.2066 0.2782 (  2206 PWs)   bands (ev):

    -7.7158  -6.7383  -2.5854  -1.4359   3.1579   3.5044   4.2100   4.3183
     4.8131   6.2158   8.2650   8.4101   9.5782   9.6602

          k = 0.0000-0.2066-0.3710 (  2200 PWs)   bands (ev):

    -7.2395  -7.2395  -2.1402  -2.1402   3.8584   3.8584   3.8757   3.8757
     5.5002   5.5002   8.4812   8.4812   9.9835   9.9835

          k =-0.9927 0.0000 0.0000 (  2202 PWs)   bands (ev):

    -8.3623  -6.1284  -2.4022   1.2450   1.5899   1.5955   2.9222   4.7658
     5.5747   7.1889   7.2439   7.8074   9.1780   9.7905

          k =-0.9927 0.0000 0.0927 (  2196 PWs)   bands (ev):

    -8.2820  -6.1820  -2.5579   0.3428   1.9851   2.3936   2.9892   4.7057
     5.8138   6.6516   7.6469   7.9714   8.9619   9.7191

          k =-0.9927 0.0000 0.1855 (  2220 PWs)   bands (ev):

    -8.0470  -6.3778  -2.7643  -0.6846   2.9270   3.1690   3.1833   4.5201
     5.9921   6.3070   7.8872   8.4745   8.5337   9.6307

          k =-0.9927 0.0000 0.2782 (  2196 PWs)   bands (ev):

    -7.6777  -6.7465  -2.6957  -1.5864   3.4835   3.8422   4.0597   4.2183
     5.2991   6.2072   8.1840   8.3752   9.1895   9.7204

          k =-0.9927 0.0000-0.3710 (  2204 PWs)   bands (ev):

    -7.2175  -7.2175  -2.2823  -2.2823   3.8491   3.8491   4.4761   4.4761
     5.3308   5.3308   8.4571   8.4571   9.6240   9.6240

     the Fermi energy is     7.2130 ev

!    total energy              =    -222.13940472 Ry
     Harris-Foulkes estimate   =    -222.13940472 Ry
     estimated scf accuracy    <          6.3E-10 Ry

     total all-electron energy =      -222.139405 Ry

     The total energy is the sum of the following terms:

     one-electron contribution =       8.01252090 Ry
     hartree contribution      =       6.22337121 Ry
     xc contribution           =     -19.84770093 Ry
     ewald contribution        =     -51.07425784 Ry
     one-center paw contrib.   =    -165.45331821 Ry
     smearing contrib. (-TS)   =      -0.00001986 Ry

     convergence has been achieved in   9 iterations

     negative rho (up, down):  4.387E-02 0.000E+00

     Forces acting on atoms (cartesian axes, Ry/au):

     atom    1 type  1   force =     0.00000000   -0.00076790   -0.00044618
     atom    2 type  1   force =     0.00000000    0.00076790   -0.00044618
     atom    3 type  1   force =     0.00000000   -0.00076790    0.00044618
     atom    4 type  1   force =     0.00000000    0.00076790    0.00044618

     Total force =     0.001776     Total SCF correction =     0.000056


     Computing stress (Cartesian axis) and pressure


     negative rho (up, down):  4.387E-02 0.000E+00
          total   stress  (Ry/bohr**3)                   (kbar)     P=   -0.45
  -0.00006494   0.00000000   0.00000000         -9.55      0.00      0.00
   0.00000000   0.00005436   0.00000000          0.00      8.00      0.00
   0.00000000   0.00000000   0.00000141          0.00      0.00      0.21


     number of scf cycles    =   3
     number of bfgs steps    =   2

     enthalpy old            =    -222.1380305364 Ry
     enthalpy new            =    -222.1394047220 Ry

     CASE: enthalpy_new < enthalpy_old

     new trust radius        =       0.0093457594 bohr
     new conv_thr            =            1.0E-10 Ry

     new unit-cell volume =    539.28189 a.u.^3 (    79.91333 Ang^3 )
     density =      2.57445 g/cm^3

CELL_PARAMETERS (alat=  6.26600000)
   0.502835172  -1.616393968   0.000000000
   0.502835172   1.616393968   0.000000000
   0.000000000   0.000000000   1.348471594

ATOMIC_POSITIONS (crystal)
P        0.400520581   0.599479419   0.583970048
P        0.099479419   0.900520581   0.083970048
P        0.900520581   0.099479419   0.916029952
P        0.599479419   0.400520581   0.416029952



     Writing output data file relax.save/
     Check: negative starting charge=   -0.032139
     NEW-OLD atomic charge density approx. for the potential

     Check: negative/imaginary core charge=   -0.000011    0.000000
     Check: negative starting charge=   -0.032145

     negative rho (up, down):  4.388E-02 0.000E+00
     extrapolated charge   20.01829, renormalised to   20.00000

     total cpu time spent up to now is       48.6 secs

     Self-consistent Calculation

     iteration #  1     ecut=    40.00 Ry     beta= 0.70
     Davidson diagonalization with overlap
     ethr =  1.00E-06,  avg # of iterations =  2.5

     Threshold (ethr) on eigenvalues was too large:
     Diagonalizing with lowered threshold

     Davidson diagonalization with overlap
     ethr =  3.93E-08,  avg # of iterations =  2.2

     negative rho (up, down):  4.383E-02 0.000E+00

     total cpu time spent up to now is       51.1 secs

     total energy              =    -222.13949580 Ry
     Harris-Foulkes estimate   =    -222.14650507 Ry
     estimated scf accuracy    <       0.00000826 Ry

     iteration #  2     ecut=    40.00 Ry     beta= 0.70
     Davidson diagonalization with overlap
     ethr =  4.13E-08,  avg # of iterations =  3.0

     negative rho (up, down):  4.382E-02 0.000E+00

     total cpu time spent up to now is       52.2 secs

     total energy              =    -222.13950354 Ry
     Harris-Foulkes estimate   =    -222.13951377 Ry
     estimated scf accuracy    <       0.00002858 Ry

     iteration #  3     ecut=    40.00 Ry     beta= 0.70
     Davidson diagonalization with overlap
     ethr =  4.13E-08,  avg # of iterations =  2.0

     negative rho (up, down):  4.382E-02 0.000E+00

     total cpu time spent up to now is       53.1 secs

     total energy              =    -222.13950491 Ry
     Harris-Foulkes estimate   =    -222.13950618 Ry
     estimated scf accuracy    <       0.00000301 Ry

     iteration #  4     ecut=    40.00 Ry     beta= 0.70
     Davidson diagonalization with overlap
     ethr =  1.50E-08,  avg # of iterations =  2.0

     negative rho (up, down):  4.382E-02 0.000E+00

     total cpu time spent up to now is       54.1 secs

     total energy              =    -222.13950522 Ry
     Harris-Foulkes estimate   =    -222.13950529 Ry
     estimated scf accuracy    <       0.00000016 Ry

     iteration #  5     ecut=    40.00 Ry     beta= 0.70
     Davidson diagonalization with overlap
     ethr =  7.81E-10,  avg # of iterations =  2.6

     negative rho (up, down):  4.382E-02 0.000E+00

     total cpu time spent up to now is       55.8 secs

     total energy              =    -222.13950526 Ry
     Harris-Foulkes estimate   =    -222.13950526 Ry
     estimated scf accuracy    <          4.1E-09 Ry

     iteration #  6     ecut=    40.00 Ry     beta= 0.70
     Davidson diagonalization with overlap
     ethr =  2.04E-11,  avg # of iterations =  2.2

     negative rho (up, down):  4.382E-02 0.000E+00

     total cpu time spent up to now is       57.4 secs

     End of self-consistent calculation

          k = 0.0000 0.0000 0.0000 (  2215 PWs)   bands (ev):

    -8.5513  -5.7038  -2.5082   0.3410   2.2283   2.2986   3.0875   4.3332
     4.5471   5.8102   7.7854   8.1668   8.9379   9.9556

          k = 0.0000 0.0000 0.0927 (  2239 PWs)   bands (ev):

    -8.4672  -5.8315  -2.5313   0.2432   1.8889   2.6394   3.1495   4.5154
     4.8962   5.2525   8.1172   8.5236   8.8100   9.8144

          k = 0.0000 0.0000 0.1854 (  2201 PWs)   bands (ev):

    -8.2195  -6.2017  -2.4715  -0.2196   1.6899   3.3277   3.4809   4.3144
     4.4058   5.8373   8.3828   8.4423   9.5552   9.5765

          k = 0.0000 0.0000 0.2781 (  2204 PWs)   bands (ev):

    -7.8231  -6.7358  -2.1815  -0.9548   1.9811   3.3382   3.5962   4.1975
     4.6192   6.2591   8.1988   8.5619   9.5151  10.2776

          k = 0.0000 0.0000-0.3708 (  2208 PWs)   bands (ev):

    -7.3091  -7.3091  -1.6548  -1.6548   2.5654   2.5654   3.9080   3.9080
     5.6531   5.6531   8.4481   8.4481   9.7515   9.7515

          k = 0.1657 0.0516 0.0000 (  2220 PWs)   bands (ev):

    -8.2167  -5.3977  -2.7362   0.6477   1.3420   1.8819   2.5573   3.7981
     4.4689   5.9444   8.0914   8.7233  10.2889  10.5080

          k = 0.1657 0.0516 0.0927 (  2218 PWs)   bands (ev):

    -8.1339  -5.5294  -2.7023   0.4118   1.4365   1.6822   3.0790   3.4244
     4.9130   5.4739   8.4135   8.8403  10.0504  10.6159

          k = 0.1657 0.0516 0.1854 (  2210 PWs)   bands (ev):

    -7.8901  -5.9033  -2.5409  -0.1926   1.5695   1.7676   2.9611   4.0091
     4.6411   5.2943   8.8870   9.2032   9.8243  10.6089

          k = 0.1657 0.0516 0.2781 (  2206 PWs)   bands (ev):

    -7.5005  -6.4323  -2.1821  -0.9342   1.7650   2.1766   2.6058   3.6615
     4.9607   5.4037   8.8949   9.5958  10.3693  10.6405

          k = 0.1657 0.0516-0.3708 (  2206 PWs)   bands (ev):

    -6.9959  -6.9959  -1.6297  -1.6297   2.0962   2.0962   2.9092   2.9092
     5.3606   5.3606   9.1945   9.1945  10.8617  10.8617

          k = 0.3315 0.1031 0.0000 (  2218 PWs)   bands (ev):

    -7.2349  -4.4787  -3.9110  -0.8876   1.2558   1.4355   3.1876   3.8334
     4.4781   5.4902   7.4226   8.6382   8.8753   9.2508

          k = 0.3315 0.1031 0.0927 (  2212 PWs)   bands (ev):

    -7.1579  -4.7004  -3.6922  -0.9785   0.9668   1.5287   3.3501   3.6003
     4.3309   5.4603   7.9313   8.3916   8.9722   9.3440

          k = 0.3315 0.1031 0.1854 (  2208 PWs)   bands (ev):

    -6.9321  -5.1194  -3.2807  -1.2568   0.6641   1.5281   2.8629   3.7640
     4.1520   5.3515   8.1509   8.8863   9.4502  10.1612

          k = 0.3315 0.1031 0.2781 (  2200 PWs)   bands (ev):

    -6.5747  -5.6119  -2.7856  -1.7017   0.6210   1.2604   2.7097   3.4596
     4.2669   5.0496   8.8053   9.4602  10.2314  10.4677

          k = 0.3315 0.1031-0.3708 (  2200 PWs)   bands (ev):

    -6.1180  -6.1180  -2.2399  -2.2399   0.8584   0.8584   3.0052   3.0052
     4.6099   4.6099   9.7997   9.7997  10.0998  10.0998

          k =-0.4972-0.1547 0.0000 (  2200 PWs)   bands (ev):

    -5.6977  -5.6977  -2.9548  -2.9548   1.7608   1.7608   3.7814   3.7814
     4.4569   4.4569   7.8456   7.8456   8.4328   8.4328

          k =-0.4972-0.1547 0.0927 (  2198 PWs)   bands (ev):

    -5.6479  -5.6479  -2.9837  -2.9837   1.6127   1.6127   3.4118   3.4118
     4.7431   4.7431   7.7975   7.7975   9.1427   9.1427

          k =-0.4972-0.1547 0.1854 (  2206 PWs)   bands (ev):

    -5.5163  -5.5163  -3.0755  -3.0755   1.3786   1.3786   2.7900   2.7900
     5.0077   5.0077   8.4293   8.4293   9.5636   9.5636

          k =-0.4972-0.1547 0.2781 (  2212 PWs)   bands (ev):

    -5.3631  -5.3631  -3.2052  -3.2052   1.3472   1.3472   2.1487   2.1487
     5.1559   5.1559   8.8744   8.8744   9.9768   9.9768

          k =-0.4972-0.1547-0.3708 (  2216 PWs)   bands (ev):

    -5.2907  -5.2907  -3.2730  -3.2730   1.5467   1.5467   1.7033   1.7033
     5.2149   5.2149   8.7769   8.7769  10.7497  10.7497

          k = 0.3315 0.0000 0.0000 (  2212 PWs)   bands (ev):

    -7.2742  -4.3714  -3.8893  -0.9654   1.2505   1.3064   3.2581   3.9954
     4.3329   5.5368   7.6477   8.3811   8.7406   9.0149

          k = 0.3315 0.0000 0.0927 (  2218 PWs)   bands (ev):

    -7.1962  -4.6350  -3.6365  -1.0383   1.0413   1.3511   3.5338   3.5954
     4.1950   5.3800   8.1974   8.2617   8.8290   9.1097

          k = 0.3315 0.0000 0.1854 (  2210 PWs)   bands (ev):

    -6.9675  -5.0927  -3.2066  -1.2732   0.7810   1.4465   2.9009   3.6915
     3.9937   5.1201   8.0284   9.3666   9.5005   9.8352

          k = 0.3315 0.0000 0.2781 (  2194 PWs)   bands (ev):

    -6.6042  -5.6127  -2.7110  -1.6733   0.7687   1.3714   2.5581   3.3096
     4.0195   4.7581   8.7574   9.9889  10.3239  10.5897

          k = 0.3315 0.0000-0.3708 (  2198 PWs)   bands (ev):

    -6.1368  -6.1368  -2.1802  -2.1802   1.0219   1.0219   2.8148   2.8148
     4.3145   4.3145   9.9141   9.9141  10.4557  10.4557

          k = 0.4972 0.0516 0.0000 (  2200 PWs)   bands (ev):

    -5.7591  -5.6305  -3.1292  -2.7779   1.6859   1.8217   3.7708   3.7832
     4.1974   4.7735   7.7067   7.8330   8.4782   8.5747

          k = 0.4972 0.0516 0.0927 (  2200 PWs)   bands (ev):

    -5.7065  -5.5841  -3.1403  -2.8267   1.5263   1.7124   3.3283   3.4058
     4.5428   5.1063   7.5368   7.8762   9.1147   9.2269

          k = 0.4972 0.0516 0.1854 (  2206 PWs)   bands (ev):

    -5.5654  -5.4636  -3.1840  -2.9691   1.2445   1.5581   2.5890   2.9429
     4.7206   5.3607   8.0562   8.5820   9.3863   9.8999

          k = 0.4972 0.0516 0.2781 (  2212 PWs)   bands (ev):

    -5.3931  -5.3318  -3.2546  -3.1560   1.1505   1.5890   1.9098   2.4118
     4.8539   5.3089   8.7933   9.1929   9.8551  10.2153

          k = 0.4972 0.0516-0.3708 (  2210 PWs)   bands (ev):

    -5.2908  -5.2908  -3.2720  -3.2720   1.3686   1.3686   1.9263   1.9263
     5.0884   5.0884   9.0529   9.0529  10.7454  10.7454

          k =-0.3315-0.2062 0.0000 (  2202 PWs)   bands (ev):

    -7.1492  -4.6925  -3.9526  -0.7220   1.2524   1.7375   2.9324   3.5453
     4.8830   5.4225   7.3128   8.7712   8.9330   9.4360

          k =-0.3315-0.2062 0.0927 (  2193 PWs)   bands (ev):

    -7.0743  -4.8444  -3.7882  -0.8516   0.9049   1.7499   3.1518   3.4576
     4.7719   5.5064   7.7452   8.5390   9.1182   9.3795

          k =-0.3315-0.2062 0.1854 (  2199 PWs)   bands (ev):

    -6.8554  -5.1818  -3.4178  -1.2217   0.5113   1.5016   2.9660   3.8194
     4.6991   5.6183   8.0839   8.7538   9.3913  10.2159

          k =-0.3315-0.2062 0.2781 (  2205 PWs)   bands (ev):

    -6.5117  -5.6135  -2.9294  -1.7593   0.4035   1.0339   3.0321   3.7249
     4.8957   5.5459   8.4395   9.3368   9.7193  10.2610

          k =-0.3315-0.2062-0.3708 (  2210 PWs)   bands (ev):

    -6.0792  -6.0792  -2.3585  -2.3585   0.6063   0.6063   3.3519   3.3519
     5.2366   5.2366   9.0930   9.0930  10.0952  10.0952

          k =-0.1657-0.1547 0.0000 (  2212 PWs)   bands (ev):

    -8.1426  -5.5865  -2.7147   0.9180   1.2739   1.8798   2.4014   3.6161
     4.7576   6.3553   7.9756   8.7651  10.1698  10.5734

          k =-0.1657-0.1547 0.0927 (  2213 PWs)   bands (ev):

    -8.0613  -5.6810  -2.7319   0.4199   1.5052   1.7461   2.9359   3.4692
     5.0538   5.9913   8.1022   8.9625  10.1354  10.6364

          k =-0.1657-0.1547 0.1854 (  2203 PWs)   bands (ev):

    -7.8228  -5.9755  -2.6768  -0.3704   1.4459   2.1904   3.0037   4.0061
     5.2470   5.4452   8.5555   9.4299   9.6766  10.5693

          k =-0.1657-0.1547 0.2781 (  2210 PWs)   bands (ev):

    -7.4441  -6.4370  -2.4041  -1.1865   1.6390   2.3411   3.0285   4.2695
     5.0741   5.5623   9.0982   9.3861   9.9683  10.4187

          k =-0.1657-0.1547-0.3708 (  2210 PWs)   bands (ev):

    -6.9605  -6.9605  -1.8911  -1.8911   1.9920   1.9920   3.5992   3.5992
     5.4940   5.4940   9.2736   9.2736  10.3471  10.3471

          k = 0.0000-0.1031 0.0000 (  2236 PWs)   bands (ev):

    -8.5096  -5.8135  -2.4823   0.4877   2.0401   2.2513   3.0492   4.4152
     4.6080   6.1520   7.9263   8.0584   9.0374   9.9141

          k = 0.0000-0.1031 0.0927 (  2222 PWs)   bands (ev):

    -8.4263  -5.9196  -2.5476   0.3232   1.7768   2.6780   3.1125   4.5696
     4.9124   5.6225   8.1038   8.4861   8.8912   9.7892

          k = 0.0000-0.1031 0.1854 (  2217 PWs)   bands (ev):

    -8.1814  -6.2434  -2.5674  -0.3209   1.8846   3.2950   3.4913   4.4414
     4.7105   5.8240   8.3166   8.4986   9.3807   9.5863

          k = 0.0000-0.1031 0.2781 (  2207 PWs)   bands (ev):

    -7.7910  -6.7383  -2.3376  -1.1302   2.3292   3.5721   3.7369   4.2093
     4.6112   6.2346   8.2221   8.5438   9.5619  10.3714

          k = 0.0000-0.1031-0.3708 (  2198 PWs)   bands (ev):

    -7.2888  -7.2888  -1.8379  -1.8379   2.9667   2.9667   3.8985   3.8985
     5.6199   5.6199   8.4697   8.4697   9.8273   9.8273

          k = 0.6629 0.0000 0.0000 (  2204 PWs)   bands (ev):

    -7.1020  -4.8002  -3.9726  -0.6325   1.2409   1.9506   2.7227   3.4174
     5.1225   5.3966   7.6524   8.1092   8.9333   9.5918

          k = 0.6629 0.0000 0.0927 (  2199 PWs)   bands (ev):

[...]
     estimated scf accuracy    <       0.00366020 Ry

     iteration #  3     ecut=    40.00 Ry     beta= 0.70
     Davidson diagonalization with overlap
     ethr =  1.83E-05,  avg # of iterations =  2.0

     negative rho (up, down):  4.424E-02 0.000E+00

     total cpu time spent up to now is      251.0 secs

     total energy              =    -222.14056047 Ry
     Harris-Foulkes estimate   =    -222.14079035 Ry
     estimated scf accuracy    <       0.00041110 Ry

     iteration #  4     ecut=    40.00 Ry     beta= 0.70
     Davidson diagonalization with overlap
     ethr =  2.06E-06,  avg # of iterations =  3.3

     negative rho (up, down):  4.430E-02 0.000E+00

     total cpu time spent up to now is      252.3 secs

     total energy              =    -222.14067278 Ry
     Harris-Foulkes estimate   =    -222.14073766 Ry
     estimated scf accuracy    <       0.00013238 Ry

     iteration #  5     ecut=    40.00 Ry     beta= 0.70
     Davidson diagonalization with overlap
     ethr =  6.62E-07,  avg # of iterations =  2.0

     negative rho (up, down):  4.428E-02 0.000E+00

     total cpu time spent up to now is      253.8 secs

     total energy              =    -222.14070173 Ry
     Harris-Foulkes estimate   =    -222.14070196 Ry
     estimated scf accuracy    <       0.00000104 Ry

     iteration #  6     ecut=    40.00 Ry     beta= 0.70
     Davidson diagonalization with overlap
     ethr =  5.20E-09,  avg # of iterations =  2.9

     negative rho (up, down):  4.428E-02 0.000E+00

     total cpu time spent up to now is      255.6 secs

     total energy              =    -222.14070232 Ry
     Harris-Foulkes estimate   =    -222.14070233 Ry
     estimated scf accuracy    <       0.00000007 Ry

     iteration #  7     ecut=    40.00 Ry     beta= 0.70
     Davidson diagonalization with overlap
     ethr =  3.70E-10,  avg # of iterations =  2.0

     negative rho (up, down):  4.427E-02 0.000E+00

     total cpu time spent up to now is      257.0 secs

     total energy              =    -222.14070233 Ry
     Harris-Foulkes estimate   =    -222.14070233 Ry
     estimated scf accuracy    <          5.5E-09 Ry

     iteration #  8     ecut=    40.00 Ry     beta= 0.70
     Davidson diagonalization with overlap
     ethr =  2.77E-11,  avg # of iterations =  2.6

     negative rho (up, down):  4.427E-02 0.000E+00

     total cpu time spent up to now is      258.7 secs

     total energy              =    -222.14070233 Ry
     Harris-Foulkes estimate   =    -222.14070233 Ry
     estimated scf accuracy    <          1.1E-09 Ry

     iteration #  9     ecut=    40.00 Ry     beta= 0.70
     Davidson diagonalization with overlap
     ethr =  5.45E-12,  avg # of iterations =  2.0

     negative rho (up, down):  4.427E-02 0.000E+00

     total cpu time spent up to now is      260.2 secs

     End of self-consistent calculation

          k = 0.0000 0.0000 0.0000 (  2427 PWs)   bands (ev):

    -9.0731  -6.3693  -3.1201  -0.0677   1.5409   1.6958   2.5989   3.8253
     4.1100   5.4388   7.2167   7.6403   8.5156   9.3735

          k = 0.0000 0.0000 0.0915 (  2413 PWs)   bands (ev):

    -8.9925  -6.4901  -3.1378  -0.2485   1.3500   2.0264   2.6592   4.0691
     4.3249   4.8794   7.6141   7.9211   8.3793   9.2738

          k = 0.0000 0.0000 0.1830 (  2407 PWs)   bands (ev):

    -8.7553  -6.8391  -3.0749  -0.8361   1.3380   2.8325   2.8629   3.9373
     3.9474   5.2022   7.8751   8.0115   8.9137   9.1168

          k = 0.0000 0.0000 0.2745 (  2415 PWs)   bands (ev):

    -8.3764  -7.3431  -2.7938  -1.5948   1.6851   3.0310   3.0959   3.7075
     3.9527   5.5798   7.7929   8.0698   9.1238   9.9274

          k = 0.0000 0.0000-0.3661 (  2418 PWs)   bands (ev):

    -7.8868  -7.8868  -2.2827  -2.2827   2.2713   2.2713   3.4074   3.4074
     4.9815   4.9815   8.0085   8.0085   9.3962   9.3962

          k = 0.1668 0.0495 0.0000 (  2415 PWs)   bands (ev):

    -8.7387  -6.0472  -3.3207   0.2266   0.8352   1.3167   1.9518   3.1627
     3.9731   5.5078   7.5142   8.0959   9.8571  10.0901

          k = 0.1668 0.0495 0.0915 (  2418 PWs)   bands (ev):

    -8.6593  -6.1736  -3.2838  -0.1042   1.0061   1.1373   2.4632   2.8751
     4.3406   5.0467   7.8744   8.2106   9.6502  10.1489

          k = 0.1668 0.0495 0.1830 (  2411 PWs)   bands (ev):

    -8.4256  -6.5302  -3.1207  -0.7825   1.0616   1.3697   2.4662   3.3914
     4.2153   4.7331   8.3832   8.7198   9.2337  10.1667

          k = 0.1668 0.0495 0.2745 (  2419 PWs)   bands (ev):

    -8.0526  -7.0335  -2.7680  -1.5384   1.2429   1.7382   2.1798   3.3040
     4.3298   4.8792   8.5026   9.0250   9.8445  10.0191

          k = 0.1668 0.0495-0.3661 (  2420 PWs)   bands (ev):

    -7.5705  -7.5705  -2.2265  -2.2265   1.5616   1.5616   2.5761   2.5761
     4.8046   4.8046   8.7143   8.7143  10.3814  10.3814

          k = 0.3336 0.0989 0.0000 (  2403 PWs)   bands (ev):

    -7.7574  -5.0839  -4.4462  -1.3656   0.6127   0.9564   2.6004   3.1885
     3.9475   5.0051   6.9221   8.1216   8.2617   8.6760

          k = 0.3336 0.0989 0.0915 (  2412 PWs)   bands (ev):

    -7.6834  -5.2975  -4.2356  -1.4695   0.3846   0.9990   2.7910   2.9786
     3.8480   4.9378   7.4059   7.9292   8.4230   8.6615

          k = 0.3336 0.0989 0.1830 (  2416 PWs)   bands (ev):

    -7.4663  -5.7102  -3.8282  -1.7759   0.1129   0.9670   2.3723   3.2156
     3.7328   4.8022   7.6627   8.3381   8.8104   9.4903

          k = 0.3336 0.0989 0.2745 (  2415 PWs)   bands (ev):

    -7.1225  -6.1918  -3.3358  -2.2436   0.0786   0.6884   2.2762   2.9938
     3.8508   4.5583   8.1905   8.9039   9.5513   9.8215

          k = 0.3336 0.0989-0.3661 (  2414 PWs)   bands (ev):

    -6.6821  -6.6821  -2.7905  -2.7905   0.3059   0.3059   2.5715   2.5715
     4.1735   4.1735   9.1435   9.1435   9.4696   9.4696

          k =-0.5003-0.1484 0.0000 (  2422 PWs)   bands (ev):

    -6.2214  -6.2214  -3.4967  -3.4967   1.1361   1.1361   3.2328   3.2328
     3.9552   3.9552   7.2515   7.2515   7.9838   7.9838

          k =-0.5003-0.1484 0.0915 (  2420 PWs)   bands (ev):

    -6.1743  -6.1743  -3.5308  -3.5308   1.0192   1.0192   2.8665   2.8665
     4.2535   4.2535   7.2104   7.2104   8.6173   8.6173

          k =-0.5003-0.1484 0.1830 (  2418 PWs)   bands (ev):

    -6.0501  -6.0501  -3.6330  -3.6330   0.8396   0.8396   2.2627   2.2627
     4.5362   4.5362   7.7744   7.7744   9.0252   9.0252

          k =-0.5003-0.1484 0.2745 (  2412 PWs)   bands (ev):

    -5.9061  -5.9061  -3.7691  -3.7691   0.8405   0.8405   1.6517   1.6517
     4.6788   4.6788   8.3097   8.3097   9.3329   9.3329

          k =-0.5003-0.1484-0.3661 (  2408 PWs)   bands (ev):

    -5.8383  -5.8383  -3.8378  -3.8378   1.0179   1.0179   1.2512   1.2512
     4.7311   4.7311   8.2672   8.2672  10.0346  10.0346

          k = 0.3336 0.0000 0.0000 (  2408 PWs)   bands (ev):

    -7.7822  -5.0167  -4.4340  -1.4146   0.6114   0.8618   2.6849   3.2921
     3.8012   5.0361   7.0539   7.9407   8.2118   8.5248

          k = 0.3336 0.0000 0.0915 (  2406 PWs)   bands (ev):

    -7.7075  -5.2549  -4.2034  -1.5067   0.4243   0.8932   2.9533   2.9592
     3.7014   4.8908   7.5665   7.8717   8.3481   8.4754

          k = 0.3336 0.0000 0.1830 (  2423 PWs)   bands (ev):

    -7.4885  -5.6925  -3.7832  -1.7853   0.1851   0.9310   2.3773   3.1914
     3.5790   4.6461   7.5891   8.6787   8.8106   9.2822

          k = 0.3336 0.0000 0.2745 (  2421 PWs)   bands (ev):

    -7.1408  -6.1917  -3.2895  -2.2251   0.1719   0.7617   2.1707   2.8996
     3.6551   4.3483   8.1803   9.2650   9.6058   9.9396

          k = 0.3336 0.0000-0.3661 (  2420 PWs)   bands (ev):

    -6.6935  -6.6935  -2.7528  -2.7528   0.4078   0.4078   2.4469   2.4469
     3.9516   3.9516   9.2392   9.2392   9.7302   9.7302

          k = 0.5003 0.0495 0.0000 (  2415 PWs)   bands (ev):

    -6.2591  -6.1815  -3.6056  -3.3864   1.0909   1.1754   3.2188   3.2514
     3.7358   4.1995   7.1283   7.2956   7.9729   8.0960

          k = 0.5003 0.0495 0.0915 (  2419 PWs)   bands (ev):

    -6.2103  -6.1364  -3.6281  -3.4331   0.9608   1.0831   2.8302   2.8655
     4.0643   4.5277   6.9971   7.3177   8.6140   8.6525

          k = 0.5003 0.0495 0.1830 (  2415 PWs)   bands (ev):

    -6.0801  -6.0188  -3.6997  -3.5671   0.7443   0.9547   2.1421   2.3620
     4.3070   4.8097   7.4780   7.9486   8.8664   9.2619

          k = 0.5003 0.0495 0.2745 (  2415 PWs)   bands (ev):

    -5.9242  -5.8875  -3.7995  -3.7389   0.7058   0.9931   1.4993   1.8176
     4.4675   4.8182   8.2068   8.5462   9.2204   9.5309

          k = 0.5003 0.0495-0.3661 (  2416 PWs)   bands (ev):

    -5.8383  -5.8383  -3.8375  -3.8375   0.9331   0.9331   1.3568   1.3568
     4.6653   4.6653   8.4376   8.4376  10.0318  10.0318

          k =-0.3336-0.1978 0.0000 (  2407 PWs)   bands (ev):

    -7.7051  -5.2177  -4.4701  -1.2632   0.6089   1.1734   2.3873   2.9975
     4.2857   4.9559   6.8798   8.0664   8.3683   8.8263

          k =-0.3336-0.1978 0.0915 (  2417 PWs)   bands (ev):

    -7.6324  -5.3874  -4.2942  -1.3918   0.3345   1.1621   2.6476   2.8586
     4.2219   4.9700   7.2868   7.9522   8.4884   8.7800

          k =-0.3336-0.1978 0.1830 (  2416 PWs)   bands (ev):

    -7.4196  -5.7491  -3.9137  -1.7559   0.0024   0.9595   2.4453   3.2213
     4.1800   5.0020   7.5604   8.2354   8.7578   9.5966

          k =-0.3336-0.1978 0.2745 (  2405 PWs)   bands (ev):

    -7.0843  -6.1933  -3.4262  -2.2810  -0.0728   0.5410   2.4957   3.1561
     4.3480   4.9353   7.8904   8.7630   9.2436   9.6246

          k =-0.3336-0.1978-0.3661 (  2412 PWs)   bands (ev):

    -6.6589  -6.6589  -2.8654  -2.8654   0.1348   0.1348   2.8030   2.8030
     4.6569   4.6569   8.5938   8.5938   9.4403   9.4403

          k =-0.1668-0.1484 0.0000 (  2425 PWs)   bands (ev):

    -8.6924  -6.1658  -3.3057   0.4370   0.7821   1.3081   1.7850   3.0557
     4.2714   5.8136   7.3655   8.1127   9.7791  10.1390

          k =-0.1668-0.1484 0.0915 (  2422 PWs)   bands (ev):

    -8.6141  -6.2688  -3.3021  -0.0998   1.0101   1.2352   2.3301   2.9052
     4.5266   5.4279   7.5813   8.2805   9.7156  10.1640

          k =-0.1668-0.1484 0.1830 (  2420 PWs)   bands (ev):

    -8.3838  -6.5761  -3.2078  -0.9000   0.9639   1.6841   2.5123   3.3482
     4.6790   4.8801   8.0816   8.8005   9.1636  10.1368

          k =-0.1668-0.1484 0.2745 (  2417 PWs)   bands (ev):

    -8.0179  -7.0375  -2.9113  -1.7031   1.1546   1.8236   2.5419   3.7497
     4.3916   5.0027   8.6503   8.8587   9.3168   9.9765

          k =-0.1668-0.1484-0.3661 (  2404 PWs)   bands (ev):

    -7.5493  -7.5493  -2.3962  -2.3962   1.4931   1.4931   3.0924   3.0924
     4.8830   4.8830   8.7655   8.7655   9.7676   9.7676

          k = 0.0000-0.0989 0.0000 (  2431 PWs)   bands (ev):

    -9.0467  -6.4382  -3.1035   0.0476   1.4175   1.6218   2.5774   3.9485
     4.1453   5.6906   7.2698   7.5793   8.5736   9.3501

          k = 0.0000-0.0989 0.0915 (  2428 PWs)   bands (ev):

    -8.9667  -6.5457  -3.1473  -0.2045   1.2945   2.0313   2.6384   4.1002
     4.3890   5.1513   7.6111   7.8479   8.4239   9.2605

          k = 0.0000-0.0989 0.1830 (  2416 PWs)   bands (ev):

    -8.7313  -6.8661  -3.1344  -0.9076   1.4977   2.8142   2.8485   3.9575
     4.2459   5.2198   7.8358   8.0341   8.7178   9.1258

          k = 0.0000-0.0989 0.2745 (  2417 PWs)   bands (ev):

    -8.3565  -7.3455  -2.8922  -1.7079   1.9497   3.0824   3.3301   3.7140
     3.9329   5.5673   7.8057   8.0464   9.1554   9.6203

          k = 0.0000-0.0989-0.3661 (  2414 PWs)   bands (ev):

    -7.8745  -7.8745  -2.3993  -2.3993   2.5737   2.5737   3.4021   3.4021
     4.9497   4.9497   8.0153   8.0153   9.4452   9.4452

          k = 0.6671 0.0000 0.0000 (  2438 PWs)   bands (ev):

    -7.6774  -5.2848  -4.4817  -1.2092   0.6031   1.3106   2.2467   2.9094
     4.4740   4.9357   7.1415   7.5622   8.4152   8.9162

          k = 0.6671 0.0000 0.0915 (  2430 PWs)   bands (ev):

    -7.6054  -5.4349  -4.3208  -1.3508   0.3135   1.2285   2.6610   2.7241
     4.4777   4.9361   7.5153   7.5801   8.4889   8.7989

          k = 0.6671 0.0000 0.1830 (  2422 PWs)   bands (ev):

    -7.3950  -5.7706  -3.9543  -1.7450  -0.0455   0.9342   2.5187   3.1991
     4.5349   4.9971   7.3534   8.4392   8.6014   9.6731

          k = 0.6671 0.0000 0.2745 (  2409 PWs)   bands (ev):

    -7.0642  -6.1948  -3.4703  -2.2998  -0.1382   0.4724   2.6123   3.2225
     4.7003   5.0712   7.5796   8.8720   9.1454   9.5633

          k = 0.6671 0.0000-0.3661 (  2398 PWs)   bands (ev):

    -6.6470  -6.6470  -2.9028  -2.9028   0.0610   0.0610   2.9158   2.9158
     4.9286   4.9286   8.2970   8.2970   9.4863   9.4863

          k =-0.1668-0.2473 0.0000 (  2425 PWs)   bands (ev):

    -8.6428  -6.2847  -3.2905   0.7385   0.7457   1.2677   1.4871   2.9961
     4.8111   6.0892   6.9896   7.9219   9.7262  10.1563

          k =-0.1668-0.2473 0.0915 (  2426 PWs)   bands (ev):

    -8.5656  -6.3668  -3.3148  -0.1143   0.9429   1.4744   2.1466   2.9041
     4.9531   5.7568   7.2634   8.0210   9.7369  10.2489

          k =-0.1668-0.2473 0.1830 (  2423 PWs)   bands (ev):

    -8.3391  -6.6264  -3.2819  -1.0188   0.8914   1.9434   2.7329   3.1664
     5.1013   5.1987   7.7801   8.4972   9.2729  10.1406

          k =-0.1668-0.2473 0.2745 (  2419 PWs)   bands (ev):

    -7.9811  -7.0435  -3.0392  -1.8583   1.0933   1.8318   3.0687   3.9711
     4.6172   5.2054   8.3601   8.8227   8.9799   9.7147

          k =-0.1668-0.2473-0.3661 (  2412 PWs)   bands (ev):

    -7.5275  -7.5275  -2.5516  -2.5516   1.4479   1.4479   3.6379   3.6379
     4.9777   4.9777   8.5995   8.5995   9.2204   9.2204

          k = 0.0000-0.1978 0.0000 (  2437 PWs)   bands (ev):

    -8.9906  -6.5761  -3.0694   0.3389   1.1954   1.3598   2.5368   4.2137
     4.4168   6.2111   7.0206   7.4772   8.6625   9.3055

          k = 0.0000-0.1978 0.0915 (  2441 PWs)   bands (ev):

    -8.9118  -6.6594  -3.1579  -0.1736   1.3300   1.9206   2.5991   4.1603
     4.7276   5.6925   7.4575   7.5599   8.4849   9.2369

          k = 0.0000-0.1978 0.1830 (  2416 PWs)   bands (ev):

    -8.6806  -6.9243  -3.2343  -1.0690   1.9284   2.7323   2.7796   3.9958
     4.8668   5.3862   7.7053   8.0068   8.2227   9.1480

          k = 0.0000-0.1978 0.2745 (  2411 PWs)   bands (ev):

    -8.3145  -7.3524  -3.0652  -1.9207   2.5764   3.0567   3.7021   3.7257
     4.0989   5.5553   7.8269   7.9434   8.8993   9.2234

          k = 0.0000-0.1978-0.3661 (  2416 PWs)   bands (ev):

    -7.8496  -7.8496  -2.6101  -2.6101   3.2574   3.2574   3.3914   3.3914
     4.8354   4.8354   8.0107   8.0107   9.4750   9.4750

          k =-1.0007 0.0000 0.0000 (  2432 PWs)   bands (ev):

    -8.9606  -6.6454  -3.0518   0.5809   1.0937   1.1137   2.5176   4.2469
     4.8603   6.4912   6.5835   7.4330   8.6946   9.2843

          k =-1.0007 0.0000 0.0915 (  2430 PWs)   bands (ev):

    -8.8825  -6.7177  -3.1595  -0.1865   1.4830   1.7405   2.5806   4.1893
     5.1066   5.9076   7.0757   7.5266   8.4996   9.2267

          k =-1.0007 0.0000 0.1830 (  2426 PWs)   bands (ev):

    -8.6537  -6.9557  -3.2760  -1.1537   2.3877   2.4311   2.7631   4.0139
     5.1979   5.6041   7.4371   7.9547   8.0482   9.1613

          k =-1.0007 0.0000 0.2745 (  2416 PWs)   bands (ev):

    -8.2924  -7.3570  -3.1422  -2.0214   3.0444   3.0609   3.5048   3.7311
     4.4728   5.5522   7.7357   7.9145   8.5763   9.2599

          k =-1.0007 0.0000-0.3661 (  2424 PWs)   bands (ev):

    -7.8369  -7.8369  -2.7067  -2.7067   3.3861   3.3861   3.7036   3.7036
     4.7003   4.7003   7.9813   7.9813   9.0414   9.0414

     the Fermi energy is     6.5374 ev

!    total energy              =    -222.14070233 Ry
     Harris-Foulkes estimate   =    -222.14070233 Ry
     estimated scf accuracy    <          3.3E-11 Ry

     total all-electron energy =      -222.140702 Ry

     The total energy is the sum of the following terms:

     one-electron contribution =       4.30739616 Ry
     hartree contribution      =       7.66677560 Ry
     xc contribution           =     -19.84108046 Ry
     ewald contribution        =     -48.81910937 Ry
     one-center paw contrib.   =    -165.45467228 Ry
     smearing contrib. (-TS)   =      -0.00001198 Ry

     convergence has been achieved in   9 iterations

     negative rho (up, down):  4.427E-02 0.000E+00

     Forces acting on atoms (cartesian axes, Ry/au):

     atom    1 type  1   force =     0.00000000   -0.00019742   -0.00007141
     atom    2 type  1   force =     0.00000000    0.00019742   -0.00007141
     atom    3 type  1   force =     0.00000000   -0.00019742    0.00007141
     atom    4 type  1   force =     0.00000000    0.00019742    0.00007141

     Total force =     0.000420     Total SCF correction =     0.000015


     Computing stress (Cartesian axis) and pressure


     negative rho (up, down):  4.427E-02 0.000E+00
          total   stress  (Ry/bohr**3)                   (kbar)     P=   -0.04
  -0.00000065  -0.00000000   0.00000000         -0.10     -0.00      0.00
  -0.00000000  -0.00000069   0.00000000         -0.00     -0.10      0.00
   0.00000000   0.00000000   0.00000044          0.00      0.00      0.07


     Writing output data file relax.save/
 
     init_run     :      1.99s CPU      2.04s WALL (       2 calls)
     electrons    :    221.80s CPU    227.98s WALL (      19 calls)
     update_pot   :      9.21s CPU      9.23s WALL (      17 calls)
     forces       :      6.16s CPU      6.20s WALL (      19 calls)
     stress       :     12.84s CPU     12.87s WALL (      19 calls)

     Called by init_run:
     wfcinit      :      1.20s CPU      1.24s WALL (       2 calls)
     potinit      :      0.25s CPU      0.26s WALL (       2 calls)
     hinit0       :      0.48s CPU      0.48s WALL (       2 calls)

     Called by electrons:
     c_bands      :    174.71s CPU    179.83s WALL (     169 calls)
     sum_band     :     32.87s CPU     33.77s WALL (     169 calls)
     v_of_rho     :      1.56s CPU      1.58s WALL (     178 calls)
     newd         :      0.70s CPU      0.72s WALL (     178 calls)
     PAW_pot      :     14.25s CPU     14.33s WALL (     195 calls)
     mix_rho      :      0.19s CPU      0.19s WALL (     169 calls)

     Called by c_bands:
     init_us_2    :      2.58s CPU      2.66s WALL (   25675 calls)
     cegterg      :    166.80s CPU    171.66s WALL (   10985 calls)

     Called by sum_band:
     sum_band:bec :      0.08s CPU      0.08s WALL (   12090 calls)
     addusdens    :      0.69s CPU      0.70s WALL (     169 calls)

     Called by *egterg:
     h_psi        :    141.09s CPU    145.25s WALL (   36821 calls)
     s_psi        :      2.45s CPU      2.53s WALL (   36821 calls)
     g_psi        :      0.47s CPU      0.48s WALL (   25706 calls)
     cdiaghg      :     10.60s CPU     10.90s WALL (   34936 calls)

     Called by h_psi:
     h_psi:pot    :    140.53s CPU    144.68s WALL (   36821 calls)
     h_psi:calbec :      4.13s CPU      4.26s WALL (   36821 calls)
     vloc_psi     :    133.59s CPU    137.54s WALL (   36821 calls)
     add_vuspsi   :      2.58s CPU      2.66s WALL (   36821 calls)

     General routines
     calbec       :      6.81s CPU      6.99s WALL (   55086 calls)
     fft          :      1.98s CPU      2.00s WALL (    2797 calls)
     ffts         :      0.08s CPU      0.08s WALL (     347 calls)
     fftw         :    145.50s CPU    149.77s WALL (  983276 calls)
     interpolate  :      0.12s CPU      0.12s WALL (     178 calls)
 
     Parallel routines
     fft_scatt_xy :     20.76s CPU     21.35s WALL (  986420 calls)
     fft_scatt_yz :     49.20s CPU     50.51s WALL (  986420 calls)
 
     PWSCF        :  4m14.41s CPU     4m20.99s WALL

 
   This run was terminated on:  16:54:29  30Jul2019            

=------------------------------------------------------------------------------=
   JOB DONE.
=------------------------------------------------------------------------------=
