===== VARIABLES =====
EXE_PATH = /scr/szymansk/2019-3/qe-bin/bin/pw.x
tpp = 8
Parallel keywords = -nimage 1
MPIRUN_EXE = orterun
PATH = /scr/szymansk/2019-3/mmshare-v4.7/lib/Linux-x86_64/openmpi/bin:/scr/szymansk/2019-3/internal/bin:/scr/szymansk/2019-3/mmshare-v4.7/bin/Linux-x86_64:/home/szymansk/bin:/scr/szymansk/dakota/bin:/scr/szymansk/atompaw-4.1.0.5/src/:/usr/lib64/qt-3.3/bin:/usr/local/bin:/usr/local/sbin:/usr/bin:/usr/sbin:/bin:/sbin
LD_LIBRARY_PATH = /scr/szymansk/2019-3/mmshare-v4.7/lib/Linux-x86_64/openmpi/lib:/scr/szymansk/2019-3/internal/lib/ssl:/scr/szymansk/2019-3/internal/lib:/scr/szymansk/2019-3/mmshare-v4.7/lib/Linux-x86_64:/scr/szymansk/2019-3/internal/lib/python3.6/site-packages:/scr/szymansk/dakota/bin:/software/lib/Linux-x86_64/ifort_2017.1.132/mkl/lib/intel64
SCHRODINGER_MPI_NODEFILE = /scr/szymansk/qe_runner#nyc-desk-l205-0-5d35f59b/nyc-desk-l205-0-5d35f59b.mpinodes:
localhost
SCHRODINGER_NODEFILE = /scr/szymansk/qe_runner#nyc-desk-l205-0-5d35f59b/nyc-desk-l205-0-5d35f59b.nodes:
localhost
===== END VARIABLES =====
Invoking: exe_cmd () 
{ 
    "$MPIRUN_EXE" -hostfile "$SCHRODINGER_MPI_NODEFILE" -np $tpp "$EXE_PATH" -in $input_file "${P_KEYWORDS[@]}"
}

     Program PWSCF v.6.3MaX starts on 22Jul2019 at 13:42:54 

     This program is part of the open-source Quantum ESPRESSO suite
     for quantum simulation of materials; please cite
         "P. Giannozzi et al., J. Phys.:Condens. Matter 21 395502 (2009);
         "P. Giannozzi et al., J. Phys.:Condens. Matter 29 465901 (2017);
          URL http://www.quantum-espresso.org", 
     in publications or presentations arising from this work. More details at
     http://www.quantum-espresso.org/quote

     Parallel version (MPI), running on     8 processors

     MPI processes distributed on     1 nodes
     R & G space division:  proc/nbgrp/npool/nimage =       8
     Reading input from pw.in

     Current dimensions of program PWSCF are:
     Max number of different atomic species (ntypx) = 10
     Max number of k-points (npk) =  40000
     Max angular momentum in pseudopotentials (lmaxx) =  3

     Subspace diagonalization in iterative solution of the eigenvalue problem:
     one sub-group per band group will be used
     scalapack distributed-memory algorithm (size of sub-group:  2*  2 procs)

 
     Parallelization info
     --------------------
     sticks:   dense  smooth     PW     G-vecs:    dense   smooth      PW
     Min          86      69     22                 2229     1611     288
     Max          88      70     24                 2232     1616     289
     Sum         691     559    187                17841    12917    2305
 


     bravais-lattice index     =            0
     lattice parameter (alat)  =       7.1091  a.u.
     unit-cell volume          =     375.0716 (a.u.)^3
     number of atoms/cell      =            4
     number of atomic types    =            1
     number of electrons       =         4.00
     number of Kohn-Sham states=            6
     kinetic-energy cutoff     =      40.0000  Ry
     charge density cutoff     =     200.0000  Ry
     convergence threshold     =      1.0E-08
     mixing beta               =       0.7000
     number of iterations used =            8  plain     mixing
     Exchange-correlation      =  SLA  PW   PBX  PBC ( 1  4  3  4 0 0)
     nstep                     =           50


     celldm(1)=   7.109063  celldm(2)=   0.000000  celldm(3)=   0.000000
     celldm(4)=   0.000000  celldm(5)=   0.000000  celldm(6)=   0.000000

     crystal axes: (cart. coord. in units of alat)
               a(1) = (   1.000000   0.000000   0.000000 )  
               a(2) = (  -0.500000   0.866025   0.000000 )  
               a(3) = (   0.000000   0.000000   1.205442 )  

     reciprocal axes: (cart. coord. in units 2 pi/alat)
               b(1) = (  1.000000  0.577350  0.000000 )  
               b(2) = (  0.000000  1.154700  0.000000 )  
               b(3) = (  0.000000  0.000000  0.829571 )  


     PseudoPot. # 1 for H  read from file:
     ./H.GGA-PBE-paw.UPF
     MD5 check sum: 761ae9a214b05c3daf00ab9f6b793d6f
     Pseudo is Ultrasoft, Zval =  1.0
     Generated by new atomic code, or converted to UPF format
     Using radial grid of  615 points,  2 beta functions with: 
                l(1) =   0
                l(2) =   0
     Q(r) pseudized with  8 coefficients,  rinner =    0.700

     atomic species   valence    mass     pseudopotential
        H              1.00     1.00794     H ( 1.00)

     24 Sym. Ops., with inversion, found (12 have fractional translation)



   Cartesian axes

     site n.     atom                  positions (alat units)
         1           H   tau(   1) = (  -0.0000005   0.5773506   0.2016910  )
         2           H   tau(   2) = (   0.5000005   0.2886749   1.0037514  )
         3           H   tau(   3) = (   0.5000005   0.2886749   0.8044122  )
         4           H   tau(   4) = (  -0.0000005   0.5773506   0.4010302  )

     number of k points=    60  Fermi-Dirac smearing, width (Ry)=  0.0020
                       cart. coord. in units 2pi/alat
        k(    1) = (   0.0625000   0.1082532   0.0691309), wk =   0.0208333
        k(    2) = (   0.0625000   0.1082532   0.2073927), wk =   0.0208333
        k(    3) = (   0.0625000   0.1082532   0.3456546), wk =   0.0208333
        k(    4) = (   0.0625000   0.2525907   0.0691309), wk =   0.0416667
        k(    5) = (   0.0625000   0.2525907   0.2073927), wk =   0.0416667
        k(    6) = (   0.0625000   0.2525907   0.3456546), wk =   0.0416667
        k(    7) = (   0.0625000   0.3969283   0.0691309), wk =   0.0416667
        k(    8) = (   0.0625000   0.3969283   0.2073927), wk =   0.0416667
        k(    9) = (   0.0625000   0.3969283   0.3456546), wk =   0.0416667
        k(   10) = (   0.0625000   0.5412658   0.0691309), wk =   0.0416667
        k(   11) = (   0.0625000   0.5412658   0.2073927), wk =   0.0416667
        k(   12) = (   0.0625000   0.5412658   0.3456546), wk =   0.0416667
        k(   13) = (   0.0625000  -0.4690971   0.0691309), wk =   0.0416667
        k(   14) = (   0.0625000  -0.4690971   0.2073927), wk =   0.0416667
        k(   15) = (   0.0625000  -0.4690971   0.3456546), wk =   0.0416667
        k(   16) = (   0.0625000  -0.3247595   0.0691309), wk =   0.0416667
        k(   17) = (   0.0625000  -0.3247595   0.2073927), wk =   0.0416667
        k(   18) = (   0.0625000  -0.3247595   0.3456546), wk =   0.0416667
        k(   19) = (   0.0625000  -0.1804219   0.0691309), wk =   0.0416667
        k(   20) = (   0.0625000  -0.1804219   0.2073927), wk =   0.0416667
        k(   21) = (   0.0625000  -0.1804219   0.3456546), wk =   0.0416667
        k(   22) = (   0.0625000  -0.0360844   0.0691309), wk =   0.0208333
        k(   23) = (   0.0625000  -0.0360844   0.2073927), wk =   0.0208333
        k(   24) = (   0.0625000  -0.0360844   0.3456546), wk =   0.0208333
        k(   25) = (   0.1875000   0.3247595   0.0691309), wk =   0.0208333
        k(   26) = (   0.1875000   0.3247595   0.2073927), wk =   0.0208333
        k(   27) = (   0.1875000   0.3247595   0.3456546), wk =   0.0208333
        k(   28) = (   0.1875000   0.4690971   0.0691309), wk =   0.0416667
        k(   29) = (   0.1875000   0.4690971   0.2073927), wk =   0.0416667
        k(   30) = (   0.1875000   0.4690971   0.3456546), wk =   0.0416667
        k(   31) = (   0.1875000   0.6134346   0.0691309), wk =   0.0416667
        k(   32) = (   0.1875000   0.6134346   0.2073927), wk =   0.0416667
        k(   33) = (   0.1875000   0.6134346   0.3456546), wk =   0.0416667
        k(   34) = (   0.1875000  -0.3969283   0.0691309), wk =   0.0416667
        k(   35) = (   0.1875000  -0.3969283   0.2073927), wk =   0.0416667
        k(   36) = (   0.1875000  -0.3969283   0.3456546), wk =   0.0416667
        k(   37) = (   0.1875000  -0.2525907   0.0691309), wk =   0.0416667
        k(   38) = (   0.1875000  -0.2525907   0.2073927), wk =   0.0416667
        k(   39) = (   0.1875000  -0.2525907   0.3456546), wk =   0.0416667
        k(   40) = (   0.1875000  -0.1082532   0.0691309), wk =   0.0208333
        k(   41) = (   0.1875000  -0.1082532   0.2073927), wk =   0.0208333
        k(   42) = (   0.1875000  -0.1082532   0.3456546), wk =   0.0208333
        k(   43) = (   0.3125000   0.5412658   0.0691309), wk =   0.0208333
        k(   44) = (   0.3125000   0.5412658   0.2073927), wk =   0.0208333
        k(   45) = (   0.3125000   0.5412658   0.3456546), wk =   0.0208333
        k(   46) = (   0.3125000   0.6856034   0.0691309), wk =   0.0416667
        k(   47) = (   0.3125000   0.6856034   0.2073927), wk =   0.0416667
        k(   48) = (   0.3125000   0.6856034   0.3456546), wk =   0.0416667
        k(   49) = (   0.3125000  -0.3247595   0.0691309), wk =   0.0416667
        k(   50) = (   0.3125000  -0.3247595   0.2073927), wk =   0.0416667
        k(   51) = (   0.3125000  -0.3247595   0.3456546), wk =   0.0416667
        k(   52) = (   0.3125000  -0.1804219   0.0691309), wk =   0.0208333
        k(   53) = (   0.3125000  -0.1804219   0.2073927), wk =   0.0208333
        k(   54) = (   0.3125000  -0.1804219   0.3456546), wk =   0.0208333
        k(   55) = (   0.4375000   0.7577722   0.0691309), wk =   0.0208333
        k(   56) = (   0.4375000   0.7577722   0.2073927), wk =   0.0208333
        k(   57) = (   0.4375000   0.7577722   0.3456546), wk =   0.0208333
        k(   58) = (   0.4375000  -0.2525907   0.0691309), wk =   0.0208333
        k(   59) = (   0.4375000  -0.2525907   0.2073927), wk =   0.0208333
        k(   60) = (   0.4375000  -0.2525907   0.3456546), wk =   0.0208333

     Dense  grid:    17841 G-vectors     FFT dimensions: (  36,  36,  40)

     Smooth grid:    12917 G-vectors     FFT dimensions: (  30,  30,  36)

     Estimated max dynamical RAM per process >       3.14 MB

     Estimated total dynamical RAM >      25.15 MB

     Initial potential from superposition of free atoms

     starting charge    3.99996, renormalised to    4.00000
     Starting wfcs are    4 randomized atomic wfcs +    2 random wfcs

     total cpu time spent up to now is        0.2 secs

     Self-consistent Calculation

     iteration #  1     ecut=    40.00 Ry     beta= 0.70
     Davidson diagonalization with overlap
     ethr =  1.00E-02,  avg # of iterations =  5.3

     total cpu time spent up to now is        1.0 secs

     total energy              =      -4.64992730 Ry
     Harris-Foulkes estimate   =      -4.74420071 Ry
     estimated scf accuracy    <       0.20766356 Ry

     iteration #  2     ecut=    40.00 Ry     beta= 0.70
     Davidson diagonalization with overlap
     ethr =  5.19E-03,  avg # of iterations =  1.0

     total cpu time spent up to now is        1.3 secs

     total energy              =      -4.66155270 Ry
     Harris-Foulkes estimate   =      -4.66304926 Ry
     estimated scf accuracy    <       0.00305943 Ry

     iteration #  3     ecut=    40.00 Ry     beta= 0.70
     Davidson diagonalization with overlap
     ethr =  7.65E-05,  avg # of iterations =  3.9

     total cpu time spent up to now is        1.8 secs

     total energy              =      -4.66196319 Ry
     Harris-Foulkes estimate   =      -4.66196215 Ry
     estimated scf accuracy    <       0.00001330 Ry

     iteration #  4     ecut=    40.00 Ry     beta= 0.70
     Davidson diagonalization with overlap
     ethr =  3.33E-07,  avg # of iterations =  2.8

     total cpu time spent up to now is        2.3 secs

     total energy              =      -4.66196508 Ry
     Harris-Foulkes estimate   =      -4.66196523 Ry
     estimated scf accuracy    <       0.00000063 Ry

     iteration #  5     ecut=    40.00 Ry     beta= 0.70
     Davidson diagonalization with overlap
     ethr =  1.57E-08,  avg # of iterations =  1.1

     total cpu time spent up to now is        2.5 secs

     End of self-consistent calculation

          k = 0.0625 0.1083 0.0691 (  1603 PWs)   bands (ev):

   -10.1718  -8.3070   1.3690   3.8134   6.5229   8.0378

          k = 0.0625 0.1083 0.2074 (  1598 PWs)   bands (ev):

    -9.9567  -8.5982   1.4553   3.2159   7.5210   8.1156

          k = 0.0625 0.1083 0.3457 (  1599 PWs)   bands (ev):

    -9.5625  -9.0677   1.7969   2.4312   8.6583   8.8648

          k = 0.0625 0.2526 0.0691 (  1603 PWs)   bands (ev):

    -9.9447  -8.3751   1.7642   3.1399   5.4559   6.9248

          k = 0.0625 0.2526 0.2074 (  1604 PWs)   bands (ev):

    -9.7523  -8.6023   1.5449   2.7113   6.1903   7.1091

          k = 0.0625 0.2526 0.3457 (  1598 PWs)   bands (ev):

    -9.4059  -8.9847   1.6111   2.0631   6.9053   7.9016

          k = 0.0625 0.3969 0.0691 (  1608 PWs)   bands (ev):

    -9.6038  -8.5232   2.1089   2.6833   4.7660   6.0705

          k = 0.0625 0.3969 0.2074 (  1596 PWs)   bands (ev):

    -9.4536  -8.6560   1.5284   2.3479   4.8918   6.7664

          k = 0.0625 0.3969 0.3457 (  1600 PWs)   bands (ev):

    -9.1939  -8.8996   1.3573   1.6908   5.5928   6.7338

          k = 0.0625 0.5413 0.0691 (  1607 PWs)   bands (ev):

    -9.3157  -8.6995   1.7677   3.4437   4.0524   5.8673

          k = 0.0625 0.5413 0.2074 (  1605 PWs)   bands (ev):

    -9.2118  -8.7547   1.3342   2.4636   4.1331   6.6567

          k = 0.0625 0.5413 0.3457 (  1599 PWs)   bands (ev):

    -9.0436  -8.8740   1.1679   1.5361   4.9860   6.1956

          k = 0.0625-0.4691 0.0691 (  1609 PWs)   bands (ev):

    -9.4339  -8.6208   1.9065   3.0269   4.4341   5.8640

          k = 0.0625-0.4691 0.2074 (  1605 PWs)   bands (ev):

    -9.3096  -8.7075   1.4178   2.3853   4.4154   6.6920

          k = 0.0625-0.4691 0.3457 (  1596 PWs)   bands (ev):

    -9.1015  -8.8786   1.2389   1.5851   5.1917   6.3760

          k = 0.0625-0.3248 0.0691 (  1601 PWs)   bands (ev):

    -9.7818  -8.4385   2.0330   2.7642   5.0751   6.4476

          k = 0.0625-0.3248 0.2074 (  1602 PWs)   bands (ev):

    -9.6082  -8.6203   1.5738   2.4632   5.4956   6.8947

          k = 0.0625-0.3248 0.3457 (  1598 PWs)   bands (ev):

    -9.3007  -8.9375   1.4885   1.8571   6.1719   7.2565

          k = 0.0625-0.1804 0.0691 (  1597 PWs)   bands (ev):

   -10.0779  -8.3324   1.5312   3.5197   5.9552   7.4625

          k = 0.0625-0.1804 0.2074 (  1600 PWs)   bands (ev):

    -9.8718  -8.5971   1.4957   2.9888   6.9195   7.4719

          k = 0.0625-0.1804 0.3457 (  1596 PWs)   bands (ev):

    -9.4965  -9.0311   1.7170   2.2679   7.7592   8.4770

          k = 0.0625-0.0361 0.0691 (  1592 PWs)   bands (ev):

   -10.2202  -8.2953   1.2864   3.9734   6.9651   8.6823

          k = 0.0625-0.0361 0.2074 (  1592 PWs)   bands (ev):

   -10.0007  -8.6003   1.4336   3.3424   7.9458   8.9479

          k = 0.0625-0.0361 0.3457 (  1605 PWs)   bands (ev):

    -9.5972  -9.0877   1.8403   2.5218   9.1759   9.5414

          k = 0.1875 0.3248 0.0691 (  1602 PWs)   bands (ev):

    -9.6672  -8.4883   2.2786   2.5411   4.9147   5.6438

          k = 0.1875 0.3248 0.2074 (  1598 PWs)   bands (ev):

    -9.5082  -8.6392   1.6999   2.2657   5.0055   6.4516

          k = 0.1875 0.3248 0.3457 (  1595 PWs)   bands (ev):

    -9.2304  -8.9102   1.4976   1.7693   5.3420   6.3434

          k = 0.1875 0.4691 0.0691 (  1606 PWs)   bands (ev):

    -9.3343  -8.6773   2.0070   3.0204   4.4554   5.0379

          k = 0.1875 0.4691 0.2074 (  1604 PWs)   bands (ev):

    -9.2263  -8.7395   1.7110   2.2601   3.7458   6.7119

          k = 0.1875 0.4691 0.3457 (  1599 PWs)   bands (ev):

    -9.0502  -8.8698   1.4357   1.6506   4.1717   5.2628

          k = 0.1875 0.6134 0.0691 (  1610 PWs)   bands (ev):

    -9.2121  -8.7650   1.8800   3.4104   4.0252   5.1936

          k = 0.1875 0.6134 0.2074 (  1609 PWs)   bands (ev):

    -9.1271  -8.7953   1.6397   2.4761   3.3292   6.5896

          k = 0.1875 0.6134 0.3457 (  1605 PWs)   bands (ev):

    -8.9951  -8.8719   1.4097   1.6669   3.8973   5.0303

          k = 0.1875-0.3969 0.0691 (  1605 PWs)   bands (ev):

    -9.4990  -8.5756   2.2368   2.6343   4.7851   5.1405

          k = 0.1875-0.3969 0.2074 (  1603 PWs)   bands (ev):

    -9.3639  -8.6813   1.7706   2.1423   4.3277   6.5375

          k = 0.1875-0.3969 0.3457 (  1601 PWs)   bands (ev):

    -9.1345  -8.8822   1.4677   1.6737   4.6720   5.7111

          k = 0.1875-0.2526 0.0691 (  1601 PWs)   bands (ev):

    -9.8200  -8.4217   1.9905   2.8494   5.1411   6.2557

          k = 0.1875-0.2526 0.2074 (  1598 PWs)   bands (ev):

    -9.6417  -8.6143   1.6074   2.4882   5.7001   6.5668

          k = 0.1875-0.2526 0.3457 (  1592 PWs)   bands (ev):

    -9.3246  -8.9473   1.5452   1.9107   6.1220   7.1088

          k = 0.1875-0.1083 0.0691 (  1593 PWs)   bands (ev):

   -10.0326  -8.3461   1.6096   3.3782   5.7639   7.4923

          k = 0.1875-0.1083 0.2074 (  1597 PWs)   bands (ev):

    -9.8309  -8.5980   1.5103   2.8894   6.5360   7.8802

          k = 0.1875-0.1083 0.3457 (  1598 PWs)   bands (ev):

    -9.4652  -9.0146   1.6763   2.1927   7.4800   8.4823

          k = 0.3125 0.5413 0.0691 (  1606 PWs)   bands (ev):

    -9.0480  -8.8952   1.9292   3.4951   3.8062   5.2182

          k = 0.3125 0.5413 0.2074 (  1618 PWs)   bands (ev):

    -8.9980  -8.8845   2.1960   2.3041   2.6598   6.0007

          k = 0.3125 0.5413 0.3457 (  1610 PWs)   bands (ev):

    -8.9313  -8.8892   1.7036   1.7483   3.2075   4.4003

          k = 0.3125 0.6856 0.0691 (  1608 PWs)   bands (ev):

    -9.1874  -8.7801   1.9573   3.2508   4.1326   5.0210

          k = 0.3125 0.6856 0.2074 (  1606 PWs)   bands (ev):

    -9.1071  -8.8048   1.9251   2.2596   3.1607   6.2813

          k = 0.3125 0.6856 0.3457 (  1610 PWs)   bands (ev):

    -8.9839  -8.8717   1.5723   1.6978   3.5778   4.7100

          k = 0.3125-0.3248 0.0691 (  1601 PWs)   bands (ev):

    -9.4763  -8.5915   2.0664   2.8173   4.6271   5.4423

          k = 0.3125-0.3248 0.2074 (  1605 PWs)   bands (ev):

    -9.3449  -8.6905   1.5814   2.2907   4.3609   6.6139

          k = 0.3125-0.3248 0.3457 (  1600 PWs)   bands (ev):

    -9.1229  -8.8808   1.3604   1.6451   4.8816   5.9748

          k = 0.3125-0.1804 0.0691 (  1602 PWs)   bands (ev):

    -9.7081  -8.4722   2.0916   2.6749   4.9315   6.6881

          k = 0.3125-0.1804 0.2074 (  1602 PWs)   bands (ev):

    -9.5438  -8.6335   1.5353   2.4127   5.2454   7.0831

          k = 0.3125-0.1804 0.3457 (  1604 PWs)   bands (ev):

    -9.2555  -8.9203   1.4111   1.7721   6.0772   7.2607

          k = 0.4375 0.7578 0.0691 (  1607 PWs)   bands (ev):

    -9.2574  -8.7367   1.7998   3.5457   3.9402   5.5200

          k = 0.4375 0.7578 0.2074 (  1608 PWs)   bands (ev):

    -9.1640  -8.7776   1.4378   2.5026   3.7161   6.7469

          k = 0.4375 0.7578 0.3457 (  1604 PWs)   bands (ev):

    -9.0160  -8.8726   1.2553   1.5898   4.4204   5.5750

          k = 0.4375-0.2526 0.0691 (  1613 PWs)   bands (ev):

    -9.3777  -8.6587   1.8027   3.2410   4.2377   6.0342

          k = 0.4375-0.2526 0.2074 (  1610 PWs)   bands (ev):

    -9.2629  -8.7300   1.3297   2.4284   4.3824   6.6722

          k = 0.4375-0.2526 0.3457 (  1600 PWs)   bands (ev):

    -9.0736  -8.8761   1.1648   1.5368   5.3186   6.5742

     the Fermi energy is    -0.3394 ev

!    total energy              =      -4.66196515 Ry
     Harris-Foulkes estimate   =      -4.66196515 Ry
     estimated scf accuracy    <          2.9E-10 Ry

     The total energy is the sum of the following terms:

     one-electron contribution =      -2.53329903 Ry
     hartree contribution      =       1.70468390 Ry
     xc contribution           =      -2.75931712 Ry
     ewald contribution        =      -1.07403291 Ry
     smearing contrib. (-TS)   =       0.00000000 Ry

     convergence has been achieved in   5 iterations

     Forces acting on atoms (cartesian axes, Ry/au):

     atom    1 type  1   force =     0.00000000    0.00000000   -0.01687504
     atom    2 type  1   force =     0.00000000    0.00000000    0.01687504
     atom    3 type  1   force =     0.00000000    0.00000000   -0.01687504
     atom    4 type  1   force =     0.00000000    0.00000000    0.01687504

     Total force =     0.033750     Total SCF correction =     0.000001


     Computing stress (Cartesian axis) and pressure

          total   stress  (Ry/bohr**3)                   (kbar)     P=    8.45
   0.00001171  -0.00000000   0.00000000          1.72     -0.00      0.00
  -0.00000000   0.00001171  -0.00000000         -0.00      1.72     -0.00
   0.00000000  -0.00000000   0.00014882          0.00     -0.00     21.89


     BFGS Geometry Optimization

     number of scf cycles    =   1
     number of bfgs steps    =   0

     enthalpy new            =      -4.6619651465 Ry

     new trust radius        =       0.0168750370 bohr
     new conv_thr            =       0.0000000100 Ry

     new unit-cell volume =    376.68759 a.u.^3 (    55.81934 Ang^3 )
     density =      0.11994 g/cm^3

CELL_PARAMETERS (angstrom)
   3.763055733  -0.000000000   0.000000000
  -1.881527867   3.258902129  -0.000000000
   0.000000000  -0.000000000   4.551690656

ATOMIC_POSITIONS (crystal)
H        0.333333000   0.666667000   0.165347818
H        0.666667000   0.333333000   0.834652182
H        0.666667000   0.333333000   0.665347818
H        0.333333000   0.666667000   0.334652182



     Writing output data file relax.save/
     NEW-OLD atomic charge density approx. for the potential
     extrapolated charge    4.01716, renormalised to    4.00000

     total cpu time spent up to now is        2.7 secs

     Self-consistent Calculation

     iteration #  1     ecut=    40.00 Ry     beta= 0.70
     Davidson diagonalization with overlap
     ethr =  1.00E-06,  avg # of iterations =  3.9

     total cpu time spent up to now is        3.3 secs

     total energy              =      -4.66211209 Ry
     Harris-Foulkes estimate   =      -4.66298686 Ry
     estimated scf accuracy    <       0.00021339 Ry

     iteration #  2     ecut=    40.00 Ry     beta= 0.70
     Davidson diagonalization with overlap
     ethr =  5.33E-06,  avg # of iterations =  2.0

     total cpu time spent up to now is        3.7 secs

     total energy              =      -4.66216734 Ry
     Harris-Foulkes estimate   =      -4.66216719 Ry
     estimated scf accuracy    <       0.00000246 Ry

     iteration #  3     ecut=    40.00 Ry     beta= 0.70
     Davidson diagonalization with overlap
     ethr =  6.16E-08,  avg # of iterations =  1.0

     total cpu time spent up to now is        3.9 secs

     total energy              =      -4.66216762 Ry
     Harris-Foulkes estimate   =      -4.66216749 Ry
     estimated scf accuracy    <       0.00000019 Ry

     iteration #  4     ecut=    40.00 Ry     beta= 0.70
     Davidson diagonalization with overlap
     ethr =  4.63E-09,  avg # of iterations =  1.0

     total cpu time spent up to now is        4.2 secs

     End of self-consistent calculation

          k = 0.0625 0.1082 0.0689 (  1603 PWs)   bands (ev):

   -10.0889  -8.1862   1.2126   3.8653   6.4727   7.9544

          k = 0.0625 0.1082 0.2066 (  1598 PWs)   bands (ev):

    -9.8712  -8.4863   1.3337   3.2224   7.4478   8.0267

          k = 0.0625 0.1082 0.3444 (  1599 PWs)   bands (ev):

    -9.4713  -8.9672   1.7175   2.3926   8.5763   8.7656

          k = 0.0625 0.2525 0.0689 (  1603 PWs)   bands (ev):

    -9.8578  -8.2553   1.6069   3.1688   5.4122   6.8476

          k = 0.0625 0.2525 0.2066 (  1604 PWs)   bands (ev):

    -9.6627  -8.4892   1.4269   2.7046   6.1066   7.0440

          k = 0.0625 0.2525 0.3444 (  1598 PWs)   bands (ev):

    -9.3108  -8.8811   1.5302   2.0165   6.8355   7.8244

          k = 0.0625 0.3968 0.0689 (  1608 PWs)   bands (ev):

    -9.5104  -8.4064   2.0371   2.6029   4.7115   5.9828

          k = 0.0625 0.3968 0.2066 (  1596 PWs)   bands (ev):

    -9.3577  -8.5427   1.4394   2.3020   4.8018   6.7210

          k = 0.0625 0.3968 0.3444 (  1600 PWs)   bands (ev):

    -9.0931  -8.7924   1.2782   1.6271   5.5309   6.6818

          k = 0.0625 0.5411 0.0689 (  1607 PWs)   bands (ev):

    -9.2160  -8.5870   1.7495   3.2902   3.9681   5.7807

          k = 0.0625 0.5411 0.2066 (  1605 PWs)   bands (ev):

    -9.1101  -8.6433   1.2727   2.3840   4.0417   6.6206

          k = 0.0625 0.5411 0.3444 (  1599 PWs)   bands (ev):

    -8.9385  -8.7652   1.0925   1.4575   4.9290   6.1500

          k = 0.0625-0.4690 0.0689 (  1609 PWs)   bands (ev):

    -9.3369  -8.5063   1.8822   2.8914   4.3585   5.7808

          k = 0.0625-0.4690 0.2066 (  1605 PWs)   bands (ev):

    -9.2103  -8.5951   1.3481   2.3162   4.3243   6.6530

          k = 0.0625-0.4690 0.3444 (  1596 PWs)   bands (ev):

    -8.9980  -8.7702   1.1623   1.5119   5.1328   6.3285

          k = 0.0625-0.3247 0.0689 (  1601 PWs)   bands (ev):

    -9.6918  -8.3199   1.8832   2.7723   5.0310   6.3639

          k = 0.0625-0.3247 0.2066 (  1602 PWs)   bands (ev):

    -9.5156  -8.5068   1.4644   2.4425   5.4080   6.8400

          k = 0.0625-0.3247 0.3444 (  1598 PWs)   bands (ev):

    -9.2028  -8.8320   1.4074   1.8033   6.1062   7.1967

          k = 0.0625-0.1804 0.0689 (  1597 PWs)   bands (ev):

    -9.9934  -8.2120   1.3741   3.5618   5.9085   7.3864

          k = 0.0625-0.1804 0.2066 (  1600 PWs)   bands (ev):

    -9.7846  -8.4846   1.3751   2.9900   6.8427   7.3940

          k = 0.0625-0.1804 0.3444 (  1596 PWs)   bands (ev):

    -9.4037  -8.9293   1.6370   2.2261   7.6844   8.3754

          k = 0.0625-0.0361 0.0689 (  1592 PWs)   bands (ev):

   -10.1382  -8.1745   1.1304   4.0309   6.9110   8.4349

          k = 0.0625-0.0361 0.2066 (  1592 PWs)   bands (ev):

    -9.9161  -8.4887   1.3116   3.3518   7.8668   8.7857

          k = 0.0625-0.0361 0.3444 (  1605 PWs)   bands (ev):

    -9.5068  -8.9880   1.7611   2.4847   9.0801   9.4013

          k = 0.1874 0.3247 0.0689 (  1602 PWs)   bands (ev):

    -9.5751  -8.3707   2.1214   2.5536   4.8687   5.5627

          k = 0.1874 0.3247 0.2066 (  1598 PWs)   bands (ev):

    -9.4134  -8.5257   1.5850   2.2478   4.9323   6.3693

          k = 0.1874 0.3247 0.3444 (  1595 PWs)   bands (ev):

    -9.1306  -8.8035   1.4124   1.7130   5.2907   6.2962

          k = 0.1874 0.4690 0.0689 (  1606 PWs)   bands (ev):

    -9.2352  -8.5639   1.9974   2.8780   4.3702   4.9809

          k = 0.1874 0.4690 0.2066 (  1604 PWs)   bands (ev):

    -9.1252  -8.6275   1.6393   2.1908   3.6754   6.6257

          k = 0.1874 0.4690 0.3444 (  1599 PWs)   bands (ev):

    -8.9454  -8.7609   1.3517   1.5739   4.1306   5.2253

          k = 0.1874 0.6133 0.0689 (  1610 PWs)   bands (ev):

    -9.1103  -8.6536   1.8680   3.2666   3.9355   5.1403

          k = 0.1874 0.6133 0.2066 (  1609 PWs)   bands (ev):

    -9.0236  -8.6845   1.5778   2.3917   3.2625   6.5497

          k = 0.1874 0.6133 0.3444 (  1605 PWs)   bands (ev):

    -8.8887  -8.7628   1.3273   1.5821   3.8599   4.9950

          k = 0.1874-0.3968 0.0689 (  1605 PWs)   bands (ev):

    -9.4034  -8.4598   2.2255   2.4956   4.7300   5.0626

          k = 0.1874-0.3968 0.2066 (  1603 PWs)   bands (ev):

    -9.2660  -8.5683   1.6687   2.1075   4.2560   6.4516

          k = 0.1874-0.3968 0.3444 (  1601 PWs)   bands (ev):

    -9.0321  -8.7741   1.3813   1.6092   4.6260   5.6696

          k = 0.1874-0.2525 0.0689 (  1601 PWs)   bands (ev):

    -9.7307  -8.3027   1.8331   2.8699   5.0964   6.1754

          k = 0.1874-0.2525 0.2066 (  1598 PWs)   bands (ev):

    -9.5499  -8.5008   1.4911   2.4758   5.6215   6.4925

          k = 0.1874-0.2525 0.3444 (  1592 PWs)   bands (ev):

    -9.2274  -8.8422   1.4626   1.8599   6.0639   7.0519

          k = 0.1874-0.1082 0.0689 (  1593 PWs)   bands (ev):

    -9.9473  -8.2259   1.4524   3.4149   5.7196   7.4731

          k = 0.1874-0.1082 0.2066 (  1597 PWs)   bands (ev):

    -9.7430  -8.4853   1.3907   2.8876   6.4544   7.8583

          k = 0.1874-0.1082 0.3444 (  1598 PWs)   bands (ev):

    -9.3716  -8.9122   1.5961   2.1493   7.3985   8.3871

          k = 0.3124 0.5411 0.0689 (  1606 PWs)   bands (ev):

    -8.9427  -8.7865   1.9201   3.3748   3.7047   5.1339

          k = 0.3124 0.5411 0.2066 (  1618 PWs)   bands (ev):

    -8.8915  -8.7754   2.1548   2.2021   2.5926   5.9621

          k = 0.3124 0.5411 0.3444 (  1610 PWs)   bands (ev):

    -8.8233  -8.7801   1.6074   1.6560   3.1864   4.3725

          k = 0.3124 0.6854 0.0689 (  1608 PWs)   bands (ev):

    -9.0852  -8.6689   1.9496   3.1152   4.0403   4.9538

          k = 0.3124 0.6854 0.2066 (  1606 PWs)   bands (ev):

    -9.0031  -8.6941   1.8618   2.1796   3.0940   6.2412

          k = 0.3124 0.6854 0.3444 (  1610 PWs)   bands (ev):

    -8.8772  -8.7624   1.4820   1.6137   3.5465   4.6781

          k = 0.3124-0.3247 0.0689 (  1601 PWs)   bands (ev):

    -9.3802  -8.4762   2.0407   2.6887   4.5602   5.3728

          k = 0.3124-0.3247 0.2066 (  1605 PWs)   bands (ev):

    -9.2465  -8.5777   1.5015   2.2328   4.2821   6.5451

          k = 0.3124-0.3247 0.3444 (  1600 PWs)   bands (ev):

    -9.0201  -8.7727   1.2800   1.5753   4.8313   5.9312

          k = 0.3124-0.1804 0.0689 (  1602 PWs)   bands (ev):

    -9.6167  -8.3544   1.9665   2.6523   4.8841   6.6696

          k = 0.3124-0.1804 0.2066 (  1602 PWs)   bands (ev):

    -9.4498  -8.5201   1.4361   2.3796   5.1520   7.0618

          k = 0.3124-0.1804 0.3444 (  1604 PWs)   bands (ev):

    -9.1564  -8.8140   1.3316   1.7137   6.0056   7.1991

          k = 0.4374 0.7576 0.0689 (  1607 PWs)   bands (ev):

    -9.1565  -8.6250   1.7843   3.3848   3.8614   5.4851

          k = 0.4374 0.7576 0.2066 (  1608 PWs)   bands (ev):

    -9.0612  -8.6666   1.3770   2.4194   3.6393   6.6842

          k = 0.4374 0.7576 0.3444 (  1604 PWs)   bands (ev):

    -8.9102  -8.7636   1.1776   1.5080   4.3743   5.5351

          k = 0.4374-0.2525 0.0689 (  1613 PWs)   bands (ev):

    -9.2794  -8.5453   1.7816   3.0972   4.1548   5.9054

          k = 0.4374-0.2525 0.2066 (  1610 PWs)   bands (ev):

    -9.1624  -8.6182   1.2654   2.3531   4.2835   6.6513

          k = 0.4374-0.2525 0.3444 (  1600 PWs)   bands (ev):

    -8.9693  -8.7675   1.0897   1.4610   5.2535   6.5236

     the Fermi energy is    -0.3684 ev

!    total energy              =      -4.66216763 Ry
     Harris-Foulkes estimate   =      -4.66216763 Ry
     estimated scf accuracy    <          4.8E-09 Ry

     The total energy is the sum of the following terms:

     one-electron contribution =      -2.45080739 Ry
     hartree contribution      =       1.66284627 Ry
     xc contribution           =      -2.73456640 Ry
     ewald contribution        =      -1.13964011 Ry
     smearing contrib. (-TS)   =       0.00000000 Ry

     convergence has been achieved in   4 iterations

     Forces acting on atoms (cartesian axes, Ry/au):

     atom    1 type  1   force =     0.00000000    0.00000000    0.01188826
     atom    2 type  1   force =    -0.00000000   -0.00000000   -0.01188826
     atom    3 type  1   force =    -0.00000000   -0.00000000    0.01188826
     atom    4 type  1   force =     0.00000000   -0.00000000   -0.01188826

     Total force =     0.023777     Total SCF correction =     0.000021


     Computing stress (Cartesian axis) and pressure

          total   stress  (Ry/bohr**3)                   (kbar)     P=   -2.30
   0.00001175  -0.00000000   0.00000000          1.73     -0.00      0.00
   0.00000000   0.00001175  -0.00000000          0.00      1.73     -0.00
   0.00000000  -0.00000000  -0.00007046          0.00     -0.00    -10.36


     number of scf cycles    =   2
     number of bfgs steps    =   1

     enthalpy old            =      -4.6619651465 Ry
     enthalpy new            =      -4.6621676300 Ry

     CASE: enthalpy_new < enthalpy_old

     new trust radius        =       0.0071049262 bohr
     new conv_thr            =       0.0000000002 Ry

     new unit-cell volume =    376.43131 a.u.^3 (    55.78136 Ang^3 )
     density =      0.12002 g/cm^3

CELL_PARAMETERS (angstrom)
   3.763725805   0.000000000   0.000000000
  -1.881862902   3.259482428  -0.000000000
   0.000000000  -0.000000000   4.546974447

ATOMIC_POSITIONS (crystal)
H        0.333333000   0.666667000   0.166173833
H        0.666667000   0.333333000   0.833826167
H        0.666667000   0.333333000   0.666173833
H        0.333333000   0.666667000   0.333826167



     Writing output data file relax.save/
     NEW-OLD atomic charge density approx. for the potential
     extrapolated charge    3.99728, renormalised to    4.00000

     total cpu time spent up to now is        4.3 secs

     Self-consistent Calculation

     iteration #  1     ecut=    40.00 Ry     beta= 0.70
     Davidson diagonalization with overlap
     ethr =  1.00E-06,  avg # of iterations =  2.5

     total cpu time spent up to now is        4.7 secs

     total energy              =      -4.66235708 Ry
     Harris-Foulkes estimate   =      -4.66226076 Ry
     estimated scf accuracy    <       0.00003380 Ry

     iteration #  2     ecut=    40.00 Ry     beta= 0.70
     Davidson diagonalization with overlap
     ethr =  8.45E-07,  avg # of iterations =  1.2

     total cpu time spent up to now is        5.0 secs

     total energy              =      -4.66236186 Ry
     Harris-Foulkes estimate   =      -4.66236170 Ry
     estimated scf accuracy    <       0.00000020 Ry

     iteration #  3     ecut=    40.00 Ry     beta= 0.70
     Davidson diagonalization with overlap
     ethr =  5.08E-09,  avg # of iterations =  1.7

     total cpu time spent up to now is        5.3 secs

     total energy              =      -4.66236189 Ry
     Harris-Foulkes estimate   =      -4.66236188 Ry
     estimated scf accuracy    <       0.00000002 Ry

     iteration #  4     ecut=    40.00 Ry     beta= 0.70
     Davidson diagonalization with overlap
     ethr =  4.17E-10,  avg # of iterations =  1.0

     total cpu time spent up to now is        5.8 secs

     End of self-consistent calculation

          k = 0.0625 0.1082 0.0689 (  1603 PWs)   bands (ev):

   -10.1213  -8.2376   1.2726   3.8380   6.4875   7.9872

          k = 0.0625 0.1082 0.2068 (  1598 PWs)   bands (ev):

    -9.9050  -8.5334   1.3798   3.2146   7.4705   8.0576

          k = 0.0625 0.1082 0.3447 (  1599 PWs)   bands (ev):

    -9.5081  -9.0087   1.7462   2.4041   8.6028   8.7977

          k = 0.0625 0.2525 0.0689 (  1603 PWs)   bands (ev):

    -9.8922  -8.3061   1.6672   3.1522   5.4248   6.8760

          k = 0.0625 0.2525 0.2068 (  1604 PWs)   bands (ev):

    -9.6985  -8.5368   1.4719   2.7030   6.1350   7.0647

          k = 0.0625 0.2525 0.3447 (  1598 PWs)   bands (ev):

    -9.3495  -8.9241   1.5602   2.0320   6.8580   7.8489

          k = 0.0625 0.3967 0.0689 (  1608 PWs)   bands (ev):

    -9.5480  -8.4556   2.0660   2.6286   4.7286   6.0150

          k = 0.0625 0.3967 0.2068 (  1596 PWs)   bands (ev):

    -9.3966  -8.5903   1.4737   2.3168   4.8334   6.7338

          k = 0.0625 0.3967 0.3447 (  1600 PWs)   bands (ev):

    -9.1345  -8.8370   1.3083   1.6504   5.5509   6.6970

          k = 0.0625 0.5410 0.0689 (  1607 PWs)   bands (ev):

    -9.2567  -8.6340   1.7547   3.3479   3.9979   5.8117

          k = 0.0625 0.5410 0.2068 (  1605 PWs)   bands (ev):

    -9.1518  -8.6898   1.2960   2.4133   4.0740   6.6296

          k = 0.0625 0.5410 0.3447 (  1599 PWs)   bands (ev):

    -8.9819  -8.8105   1.1215   1.4873   4.9472   6.1628

          k = 0.0625-0.4689 0.0689 (  1609 PWs)   bands (ev):

    -9.3762  -8.5543   1.8901   2.9415   4.3845   5.8103

          k = 0.0625-0.4689 0.2068 (  1605 PWs)   bands (ev):

    -9.2508  -8.6422   1.3748   2.3408   4.3565   6.6632

          k = 0.0625-0.4689 0.3447 (  1596 PWs)   bands (ev):

    -9.0407  -8.8153   1.1917   1.5394   5.1517   6.3420

          k = 0.0625-0.3246 0.0689 (  1601 PWs)   bands (ev):

    -9.7277  -8.3700   1.9408   2.7644   5.0438   6.3949

          k = 0.0625-0.3246 0.2068 (  1602 PWs)   bands (ev):

    -9.5529  -8.5545   1.5064   2.4469   5.4383   6.8565

          k = 0.0625-0.3246 0.3447 (  1598 PWs)   bands (ev):

    -9.2428  -8.8758   1.4379   1.8222   6.1274   7.2147

          k = 0.0625-0.1803 0.0689 (  1597 PWs)   bands (ev):

   -10.0266  -8.2631   1.4343   3.5391   5.9222   7.4146

          k = 0.0625-0.1803 0.2068 (  1600 PWs)   bands (ev):

    -9.8193  -8.5319   1.4209   2.9847   6.8676   7.4201

          k = 0.0625-0.1803 0.3447 (  1596 PWs)   bands (ev):

    -9.4413  -8.9715   1.6662   2.2392   7.7084   8.4087

          k = 0.0625-0.0361 0.0689 (  1592 PWs)   bands (ev):

   -10.1702  -8.2259   1.1903   4.0010   6.9270   8.5294

          k = 0.0625-0.0361 0.2068 (  1592 PWs)   bands (ev):

    -9.9495  -8.5357   1.3578   3.3426   7.8915   8.8446

          k = 0.0625-0.0361 0.3447 (  1605 PWs)   bands (ev):

    -9.5433  -9.0292   1.7896   2.4954   9.1111   9.4488

          k = 0.1874 0.3246 0.0689 (  1602 PWs)   bands (ev):

    -9.6120  -8.4203   2.1815   2.5449   4.8823   5.5919

          k = 0.1874 0.3246 0.2068 (  1598 PWs)   bands (ev):

    -9.4517  -8.5734   1.6291   2.2517   4.9579   6.3958

          k = 0.1874 0.3246 0.3447 (  1595 PWs)   bands (ev):

    -9.1715  -8.8479   1.4447   1.7332   5.3070   6.3099

          k = 0.1874 0.4689 0.0689 (  1606 PWs)   bands (ev):

    -9.2756  -8.6114   1.9989   2.9319   4.4006   4.9987

          k = 0.1874 0.4689 0.2068 (  1604 PWs)   bands (ev):

    -9.1666  -8.6743   1.6669   2.2156   3.7004   6.6545

          k = 0.1874 0.4689 0.3447 (  1599 PWs)   bands (ev):

    -8.9887  -8.8063   1.3840   1.6028   4.1434   5.2357

          k = 0.1874 0.6131 0.0689 (  1610 PWs)   bands (ev):

    -9.1520  -8.7001   1.8707   3.3212   3.9680   5.1560

          k = 0.1874 0.6131 0.2068 (  1609 PWs)   bands (ev):

    -9.0662  -8.7307   1.6012   2.4230   3.2861   6.5599

          k = 0.1874 0.6131 0.3447 (  1605 PWs)   bands (ev):

    -8.9328  -8.8082   1.3591   1.6145   3.8713   5.0046

          k = 0.1874-0.3967 0.0689 (  1605 PWs)   bands (ev):

    -9.4421  -8.5085   2.2287   2.5466   4.7473   5.0902

          k = 0.1874-0.3967 0.2068 (  1603 PWs)   bands (ev):

    -9.3059  -8.6156   1.7081   2.1182   4.2813   6.4794

          k = 0.1874-0.3967 0.3447 (  1601 PWs)   bands (ev):

    -9.0743  -8.8191   1.4143   1.6330   4.6405   5.6814

          k = 0.1874-0.2525 0.0689 (  1601 PWs)   bands (ev):

    -9.7663  -8.3531   1.8934   2.8572   5.1096   6.2044

          k = 0.1874-0.2525 0.2068 (  1598 PWs)   bands (ev):

    -9.5868  -8.5485   1.5356   2.4770   5.6488   6.5162

          k = 0.1874-0.2525 0.3447 (  1592 PWs)   bands (ev):

    -9.2671  -8.8858   1.4936   1.8774   6.0824   7.0690

          k = 0.1874-0.1082 0.0689 (  1593 PWs)   bands (ev):

    -9.9808  -8.2770   1.5127   3.3947   5.7323   7.4755

          k = 0.1874-0.1082 0.2068 (  1597 PWs)   bands (ev):

    -9.7780  -8.5327   1.4363   2.8837   6.4815   7.8614

          k = 0.1874-0.1082 0.3447 (  1598 PWs)   bands (ev):

    -9.4096  -8.9546   1.6256   2.1632   7.4250   8.4183

          k = 0.3124 0.5410 0.0689 (  1606 PWs)   bands (ev):

    -8.9862  -8.8316   1.9218   3.4203   3.7425   5.1608

          k = 0.3124 0.5410 0.2068 (  1618 PWs)   bands (ev):

    -8.9355  -8.8207   2.1700   2.2409   2.6164   5.9720

          k = 0.3124 0.5410 0.3447 (  1610 PWs)   bands (ev):

    -8.8681  -8.8255   1.6445   1.6915   3.1918   4.3795

          k = 0.3124 0.6853 0.0689 (  1608 PWs)   bands (ev):

    -9.1271  -8.7152   1.9505   3.1668   4.0742   4.9745

          k = 0.3124 0.6853 0.2068 (  1606 PWs)   bands (ev):

    -9.0459  -8.7403   1.8862   2.2088   3.1178   6.2516

          k = 0.3124 0.6853 0.3447 (  1610 PWs)   bands (ev):

    -8.9214  -8.8079   1.5169   1.6458   3.5558   4.6866

          k = 0.3124-0.3246 0.0689 (  1601 PWs)   bands (ev):

    -9.4191  -8.5246   2.0495   2.7357   4.5826   5.3968

          k = 0.3124-0.3246 0.2068 (  1605 PWs)   bands (ev):

    -9.2866  -8.6249   1.5322   2.2527   4.3099   6.5665

          k = 0.3124-0.3246 0.3447 (  1600 PWs)   bands (ev):

    -9.0625  -8.8177   1.3108   1.6012   4.8473   5.9436

          k = 0.3124-0.1803 0.0689 (  1602 PWs)   bands (ev):

    -9.6533  -8.4042   2.0156   2.6556   4.8982   6.6723

          k = 0.3124-0.1803 0.2068 (  1602 PWs)   bands (ev):

    -9.4878  -8.5677   1.4743   2.3890   5.1845   7.0652

          k = 0.3124-0.1803 0.3447 (  1604 PWs)   bands (ev):

    -9.1970  -8.8582   1.3616   1.7346   6.0289   7.2176

          k = 0.4373 0.7574 0.0689 (  1607 PWs)   bands (ev):

    -9.1977  -8.6716   1.7884   3.4454   3.8895   5.4941

          k = 0.4373 0.7574 0.2068 (  1608 PWs)   bands (ev):

    -9.1035  -8.7129   1.4000   2.4502   3.6664   6.7029

          k = 0.4373 0.7574 0.3447 (  1604 PWs)   bands (ev):

    -8.9540  -8.8090   1.2075   1.5392   4.3887   5.5461

          k = 0.4373-0.2525 0.0689 (  1613 PWs)   bands (ev):

    -9.3194  -8.5928   1.7880   3.1508   4.1838   5.9497

          k = 0.4373-0.2525 0.2068 (  1610 PWs)   bands (ev):

    -9.2035  -8.6649   1.2899   2.3804   4.3185   6.6548

          k = 0.4373-0.2525 0.3447 (  1600 PWs)   bands (ev):

    -9.0124  -8.8127   1.1186   1.4896   5.2745   6.5381

     the Fermi energy is    -0.3607 ev

!    total energy              =      -4.66236189 Ry
     Harris-Foulkes estimate   =      -4.66236189 Ry
     estimated scf accuracy    <          4.6E-11 Ry

     The total energy is the sum of the following terms:

     one-electron contribution =      -2.48573887 Ry
     hartree contribution      =       1.68033602 Ry
     xc contribution           =      -2.74438347 Ry
     ewald contribution        =      -1.11257557 Ry
     smearing contrib. (-TS)   =       0.00000000 Ry

     convergence has been achieved in   4 iterations

     Forces acting on atoms (cartesian axes, Ry/au):

     atom    1 type  1   force =    -0.00000000    0.00000000    0.00080989
     atom    2 type  1   force =     0.00000000   -0.00000000   -0.00080989
     atom    3 type  1   force =    -0.00000000   -0.00000000    0.00080989
     atom    4 type  1   force =     0.00000000   -0.00000000   -0.00080989

     Total force =     0.001620     Total SCF correction =     0.000000


     Computing stress (Cartesian axis) and pressure

          total   stress  (Ry/bohr**3)                   (kbar)     P=    1.89
   0.00001171  -0.00000000  -0.00000000          1.72     -0.00     -0.00
  -0.00000000   0.00001171   0.00000000         -0.00      1.72      0.00
   0.00000000  -0.00000000   0.00001506          0.00     -0.00      2.21


     number of scf cycles    =   3
     number of bfgs steps    =   2

     enthalpy old            =      -4.6621676300 Ry
     enthalpy new            =      -4.6623618941 Ry

     CASE: enthalpy_new < enthalpy_old

     new trust radius        =       0.0016345129 bohr
     new conv_thr            =            1.0E-10 Ry

     new unit-cell volume =    376.82305 a.u.^3 (    55.83941 Ang^3 )
     density =      0.11990 g/cm^3

CELL_PARAMETERS (angstrom)
   3.764890814   0.000000000   0.000000000
  -1.882445407   3.260491356  -0.000000000
   0.000000000  -0.000000000   4.548889753

ATOMIC_POSITIONS (crystal)
H        0.333333000   0.666667000   0.166258378
H        0.666667000   0.333333000   0.833741622
H        0.666667000   0.333333000   0.666258378
H        0.333333000   0.666667000   0.333741622



     Writing output data file relax.save/
     NEW-OLD atomic charge density approx. for the potential
     extrapolated charge    4.00416, renormalised to    4.00000

     total cpu time spent up to now is        5.9 secs

     Self-consistent Calculation

     iteration #  1     ecut=    40.00 Ry     beta= 0.70
     Davidson diagonalization with overlap
     ethr =  1.00E-06,  avg # of iterations =  2.0

     Threshold (ethr) on eigenvalues was too large:
     Diagonalizing with lowered threshold

     Davidson diagonalization with overlap
     ethr =  3.49E-09,  avg # of iterations =  1.0

     total cpu time spent up to now is        6.4 secs

     total energy              =      -4.66236848 Ry
     Harris-Foulkes estimate   =      -4.66253392 Ry
     estimated scf accuracy    <       0.00000014 Ry

     iteration #  2     ecut=    40.00 Ry     beta= 0.70
     Davidson diagonalization with overlap
     ethr =  3.52E-09,  avg # of iterations =  2.0

     total cpu time spent up to now is        6.8 secs

     total energy              =      -4.66236910 Ry
     Harris-Foulkes estimate   =      -4.66236897 Ry
     estimated scf accuracy    <       0.00000037 Ry

     iteration #  3     ecut=    40.00 Ry     beta= 0.70
     Davidson diagonalization with overlap
     ethr =  3.52E-09,  avg # of iterations =  1.0

     total cpu time spent up to now is        7.1 secs

     total energy              =      -4.66236874 Ry
     Harris-Foulkes estimate   =      -4.66236911 Ry
     estimated scf accuracy    <       0.00000069 Ry

     iteration #  4     ecut=    40.00 Ry     beta= 0.70
     Davidson diagonalization with overlap
     ethr =  3.52E-09,  avg # of iterations =  2.0

     total cpu time spent up to now is        7.7 secs

     total energy              =      -4.66236882 Ry
     Harris-Foulkes estimate   =      -4.66236882 Ry
     estimated scf accuracy    <          2.0E-09 Ry

     iteration #  5     ecut=    40.00 Ry     beta= 0.70
     Davidson diagonalization with overlap
     ethr =  4.97E-11,  avg # of iterations =  1.0

     total cpu time spent up to now is        8.1 secs

     total energy              =      -4.66236882 Ry
     Harris-Foulkes estimate   =      -4.66236882 Ry
     estimated scf accuracy    <          3.8E-10 Ry

     iteration #  6     ecut=    40.00 Ry     beta= 0.70
     Davidson diagonalization with overlap
     ethr =  9.57E-12,  avg # of iterations =  1.9

     total cpu time spent up to now is        8.5 secs

     End of self-consistent calculation

          k = 0.0625 0.1082 0.0689 (  1603 PWs)   bands (ev):

   -10.1224  -8.2435   1.2730   3.8297   6.4828   7.9826

          k = 0.0625 0.1082 0.2068 (  1598 PWs)   bands (ev):

    -9.9066  -8.5385   1.3793   3.2083   7.4650   8.0530

          k = 0.0625 0.1082 0.3446 (  1599 PWs)   bands (ev):

    -9.5106  -9.0125   1.7442   2.4001   8.5973   8.7913

          k = 0.0625 0.2524 0.0689 (  1603 PWs)   bands (ev):

    -9.8937  -8.3118   1.6674   3.1461   5.4203   6.8719

          k = 0.0625 0.2524 0.2068 (  1604 PWs)   bands (ev):

    -9.7005  -8.5418   1.4717   2.6982   6.1310   7.0599

          k = 0.0625 0.2524 0.3446 (  1598 PWs)   bands (ev):

    -9.3523  -8.9280   1.5590   2.0292   6.8535   7.8433

          k = 0.0625 0.3966 0.0689 (  1608 PWs)   bands (ev):

    -9.5503  -8.4608   2.0644   2.6261   4.7241   6.0116

          k = 0.0625 0.3966 0.2068 (  1596 PWs)   bands (ev):

    -9.3993  -8.5952   1.4735   2.3140   4.8305   6.7288

          k = 0.0625 0.3966 0.3446 (  1600 PWs)   bands (ev):

    -9.1380  -8.8412   1.3080   1.6490   5.5469   6.6917

          k = 0.0625 0.5408 0.0689 (  1607 PWs)   bands (ev):

    -9.2597  -8.6387   1.7524   3.3469   3.9946   5.8072

          k = 0.0625 0.5408 0.2068 (  1605 PWs)   bands (ev):

    -9.1551  -8.6944   1.2954   2.4118   4.0715   6.6248

          k = 0.0625 0.5408 0.3446 (  1599 PWs)   bands (ev):

    -8.9858  -8.8148   1.1216   1.4870   4.9433   6.1576

          k = 0.0625-0.4687 0.0689 (  1609 PWs)   bands (ev):

    -9.3790  -8.5592   1.8877   2.9403   4.3806   5.8066

          k = 0.0625-0.4687 0.2068 (  1605 PWs)   bands (ev):

    -9.2539  -8.6469   1.3742   2.3389   4.3538   6.6583

          k = 0.0625-0.4687 0.3446 (  1596 PWs)   bands (ev):

    -9.0444  -8.8196   1.1916   1.5387   5.1478   6.3368

          k = 0.0625-0.3245 0.0689 (  1601 PWs)   bands (ev):

    -9.7296  -8.3756   1.9408   2.7596   5.0392   6.3912

          k = 0.0625-0.3245 0.2068 (  1602 PWs)   bands (ev):

    -9.5552  -8.5595   1.5063   2.4430   5.4349   6.8516

          k = 0.0625-0.3245 0.3446 (  1598 PWs)   bands (ev):

    -9.2460  -8.8800   1.4372   1.8201   6.1232   7.2093

          k = 0.0625-0.1803 0.0689 (  1597 PWs)   bands (ev):

   -10.0279  -8.2690   1.4346   3.5318   5.9178   7.4102

          k = 0.0625-0.1803 0.2068 (  1600 PWs)   bands (ev):

    -9.8210  -8.5370   1.4205   2.9791   6.8628   7.4156

          k = 0.0625-0.1803 0.3446 (  1596 PWs)   bands (ev):

    -9.4439  -8.9753   1.6646   2.2357   7.7034   8.4027

          k = 0.0625-0.0361 0.0689 (  1592 PWs)   bands (ev):

   -10.1711  -8.2319   1.1907   3.9922   6.9219   8.5264

          k = 0.0625-0.0361 0.2068 (  1592 PWs)   bands (ev):

    -9.9510  -8.5407   1.3572   3.3360   7.8857   8.8400

          k = 0.0625-0.0361 0.3446 (  1605 PWs)   bands (ev):

    -9.5456  -9.0328   1.7874   2.4911   9.1047   9.4425

          k = 0.1874 0.3245 0.0689 (  1602 PWs)   bands (ev):

    -9.6142  -8.4257   2.1815   2.5405   4.8782   5.5881

          k = 0.1874 0.3245 0.2068 (  1598 PWs)   bands (ev):

    -9.4543  -8.5783   1.6292   2.2482   4.9552   6.3905

          k = 0.1874 0.3245 0.3446 (  1595 PWs)   bands (ev):

    -9.1749  -8.8521   1.4442   1.7314   5.3035   6.3052

          k = 0.1874 0.4687 0.0689 (  1606 PWs)   bands (ev):

    -9.2786  -8.6161   1.9964   2.9312   4.3973   4.9946

          k = 0.1874 0.4687 0.2068 (  1604 PWs)   bands (ev):

    -9.1699  -8.6790   1.6662   2.2140   3.6984   6.6488

          k = 0.1874 0.4687 0.3446 (  1599 PWs)   bands (ev):

    -8.9926  -8.8106   1.3841   1.6023   4.1404   5.2314

          k = 0.1874 0.6130 0.0689 (  1610 PWs)   bands (ev):

    -9.1553  -8.7046   1.8685   3.3204   3.9651   5.1516

          k = 0.1874 0.6130 0.2068 (  1609 PWs)   bands (ev):

    -9.0698  -8.7352   1.6004   2.4218   3.2843   6.5542

          k = 0.1874 0.6130 0.3446 (  1605 PWs)   bands (ev):

    -8.9368  -8.8126   1.3591   1.6143   3.8684   5.0004

          k = 0.1874-0.3966 0.0689 (  1605 PWs)   bands (ev):

    -9.4447  -8.5136   2.2257   2.5460   4.7431   5.0867

          k = 0.1874-0.3966 0.2068 (  1603 PWs)   bands (ev):

    -9.3088  -8.6205   1.7080   2.1156   4.2790   6.4740

          k = 0.1874-0.3966 0.3446 (  1601 PWs)   bands (ev):

    -9.0779  -8.8234   1.4142   1.6318   4.6374   5.6770

          k = 0.1874-0.2524 0.0689 (  1601 PWs)   bands (ev):

    -9.7681  -8.3586   1.8935   2.8520   5.1054   6.2004

          k = 0.1874-0.2524 0.2068 (  1598 PWs)   bands (ev):

    -9.5890  -8.5535   1.5355   2.4728   5.6456   6.5111

          k = 0.1874-0.2524 0.3446 (  1592 PWs)   bands (ev):

    -9.2702  -8.8899   1.4927   1.8751   6.0785   7.0639

          k = 0.1874-0.1082 0.0689 (  1593 PWs)   bands (ev):

    -9.9822  -8.2828   1.5129   3.3878   5.7277   7.4704

          k = 0.1874-0.1082 0.2068 (  1597 PWs)   bands (ev):

    -9.7799  -8.5378   1.4360   2.8784   6.4772   7.8560

          k = 0.1874-0.1082 0.3446 (  1598 PWs)   bands (ev):

    -9.4123  -8.9585   1.6241   2.1600   7.4200   8.4123

          k = 0.3123 0.5408 0.0689 (  1606 PWs)   bands (ev):

    -8.9899  -8.8358   1.9200   3.4188   3.7403   5.1564

          k = 0.3123 0.5408 0.2068 (  1618 PWs)   bands (ev):

    -8.9395  -8.8250   2.1684   2.2406   2.6150   5.9667

          k = 0.3123 0.5408 0.3446 (  1610 PWs)   bands (ev):

    -8.8723  -8.8298   1.6448   1.6916   3.1891   4.3757

          k = 0.3123 0.6851 0.0689 (  1608 PWs)   bands (ev):

    -9.1305  -8.7197   1.9484   3.1659   4.0714   4.9701

          k = 0.3123 0.6851 0.2068 (  1606 PWs)   bands (ev):

    -9.0496  -8.7447   1.8852   2.2078   3.1161   6.2462

          k = 0.3123 0.6851 0.3446 (  1610 PWs)   bands (ev):

    -8.9254  -8.8123   1.5170   1.6456   3.5530   4.6826

          k = 0.3123-0.3245 0.0689 (  1601 PWs)   bands (ev):

    -9.4218  -8.5296   2.0471   2.7346   4.5785   5.3932

          k = 0.3123-0.3245 0.2068 (  1605 PWs)   bands (ev):

    -9.2896  -8.6297   1.5318   2.2505   4.3075   6.5612

          k = 0.3123-0.3245 0.3446 (  1600 PWs)   bands (ev):

    -9.0661  -8.8220   1.3106   1.6003   4.8438   5.9389

          k = 0.3123-0.1803 0.0689 (  1602 PWs)   bands (ev):

    -9.6554  -8.4095   2.0152   2.6516   4.8935   6.6677

          k = 0.3123-0.1803 0.2068 (  1602 PWs)   bands (ev):

    -9.4903  -8.5726   1.4741   2.3856   5.1812   7.0603

          k = 0.3123-0.1803 0.3446 (  1604 PWs)   bands (ev):

    -9.2002  -8.8623   1.3611   1.7329   6.0246   7.2120

          k = 0.4372 0.7572 0.0689 (  1607 PWs)   bands (ev):

    -9.2010  -8.6762   1.7861   3.4448   3.8863   5.4897

          k = 0.4372 0.7572 0.2068 (  1608 PWs)   bands (ev):

    -9.1070  -8.7175   1.3993   2.4488   3.6643   6.6976

          k = 0.4372 0.7572 0.3446 (  1604 PWs)   bands (ev):

    -8.9579  -8.8133   1.2076   1.5390   4.3854   5.5415

          k = 0.4372-0.2524 0.0689 (  1613 PWs)   bands (ev):

    -9.3223  -8.5976   1.7856   3.1497   4.1803   5.9455

          k = 0.4372-0.2524 0.2068 (  1610 PWs)   bands (ev):

    -9.2068  -8.6696   1.2893   2.3788   4.3157   6.6502

          k = 0.4372-0.2524 0.3446 (  1600 PWs)   bands (ev):

    -9.0161  -8.8170   1.1186   1.4892   5.2704   6.5325

     the Fermi energy is    -0.3643 ev

!    total energy              =      -4.66236882 Ry
     Harris-Foulkes estimate   =      -4.66236882 Ry
     estimated scf accuracy    <          2.1E-11 Ry

     The total energy is the sum of the following terms:

     one-electron contribution =      -2.48983436 Ry
     hartree contribution      =       1.68214932 Ry
     xc contribution           =      -2.74487477 Ry
     ewald contribution        =      -1.10980901 Ry
     smearing contrib. (-TS)   =       0.00000000 Ry

     convergence has been achieved in   6 iterations

     Forces acting on atoms (cartesian axes, Ry/au):

     atom    1 type  1   force =     0.00000000    0.00000000    0.00019102
     atom    2 type  1   force =    -0.00000000   -0.00000000   -0.00019102
     atom    3 type  1   force =    -0.00000000   -0.00000000    0.00019102
     atom    4 type  1   force =    -0.00000000    0.00000000   -0.00019102

     Total force =     0.000382     Total SCF correction =     0.000001


     Computing stress (Cartesian axis) and pressure

          total   stress  (Ry/bohr**3)                   (kbar)     P=    2.10
   0.00001163  -0.00000000  -0.00000000          1.71     -0.00     -0.00
  -0.00000000   0.00001163   0.00000000         -0.00      1.71      0.00
   0.00000000  -0.00000000   0.00001961          0.00     -0.00      2.88


     number of scf cycles    =   4
     number of bfgs steps    =   3

     enthalpy old            =      -4.6623618941 Ry
     enthalpy new            =      -4.6623688165 Ry

     CASE: enthalpy_new < enthalpy_old


     WARNING: bfgs curvature condition failed, Theta= 0.937
     new trust radius        =       0.0017981421 bohr
     new conv_thr            =            1.0E-10 Ry

     new unit-cell volume =    377.23301 a.u.^3 (    55.90016 Ang^3 )
     density =      0.11977 g/cm^3

CELL_PARAMETERS (angstrom)
   3.766066237   0.000000000   0.000000000
  -1.883033119   3.261509301  -0.000000000
  -0.000000000   0.000000000   4.550996588

ATOMIC_POSITIONS (crystal)
H        0.333333000   0.666667000   0.166319729
H        0.666667000   0.333333000   0.833680271
H        0.666667000   0.333333000   0.666319729
H        0.333333000   0.666667000   0.333680271



     Writing output data file relax.save/
     NEW-OLD atomic charge density approx. for the potential
     extrapolated charge    4.00435, renormalised to    4.00000

     total cpu time spent up to now is        8.6 secs

     Self-consistent Calculation

     iteration #  1     ecut=    40.00 Ry     beta= 0.70
     Davidson diagonalization with overlap
     ethr =  1.00E-06,  avg # of iterations =  2.0

     Threshold (ethr) on eigenvalues was too large:
     Diagonalizing with lowered threshold

     Davidson diagonalization with overlap
     ethr =  1.49E-09,  avg # of iterations =  1.0

     total cpu time spent up to now is        9.1 secs

     total energy              =      -4.66237478 Ry
     Harris-Foulkes estimate   =      -4.66254508 Ry
     estimated scf accuracy    <       0.00000006 Ry

     iteration #  2     ecut=    40.00 Ry     beta= 0.70
     Davidson diagonalization with overlap
     ethr =  1.49E-09,  avg # of iterations =  2.1

     total cpu time spent up to now is        9.5 secs

     total energy              =      -4.66237543 Ry
     Harris-Foulkes estimate   =      -4.66237540 Ry
     estimated scf accuracy    <       0.00000038 Ry

     iteration #  3     ecut=    40.00 Ry     beta= 0.70
     Davidson diagonalization with overlap
     ethr =  1.49E-09,  avg # of iterations =  1.0

     total cpu time spent up to now is        9.8 secs

     total energy              =      -4.66237519 Ry
     Harris-Foulkes estimate   =      -4.66237543 Ry
     estimated scf accuracy    <       0.00000046 Ry

     iteration #  4     ecut=    40.00 Ry     beta= 0.70
     Davidson diagonalization with overlap
     ethr =  1.49E-09,  avg # of iterations =  2.0

     total cpu time spent up to now is       10.1 secs

     total energy              =      -4.66237524 Ry
     Harris-Foulkes estimate   =      -4.66237524 Ry
     estimated scf accuracy    <          1.1E-09 Ry

     iteration #  5     ecut=    40.00 Ry     beta= 0.70
     Davidson diagonalization with overlap
     ethr =  2.77E-11,  avg # of iterations =  1.0

     total cpu time spent up to now is       10.4 secs

     total energy              =      -4.66237524 Ry
     Harris-Foulkes estimate   =      -4.66237524 Ry
     estimated scf accuracy    <          5.4E-10 Ry

     iteration #  6     ecut=    40.00 Ry     beta= 0.70
     Davidson diagonalization with overlap
     ethr =  1.35E-11,  avg # of iterations =  1.3

     total cpu time spent up to now is       10.7 secs

     End of self-consistent calculation

          k = 0.0624 0.1081 0.0689 (  1603 PWs)   bands (ev):

   -10.1225  -8.2480   1.2715   3.8221   6.4776   7.9771

          k = 0.0624 0.1081 0.2067 (  1598 PWs)   bands (ev):

    -9.9071  -8.5422   1.3774   3.2022   7.4587   8.0474

          k = 0.0624 0.1081 0.3444 (  1599 PWs)   bands (ev):

    -9.5119  -9.0150   1.7413   2.3957   8.5908   8.7838

          k = 0.0624 0.2523 0.0689 (  1603 PWs)   bands (ev):

    -9.8942  -8.3161   1.6659   3.1403   5.4154   6.8670

          k = 0.0624 0.2523 0.2067 (  1604 PWs)   bands (ev):

    -9.7015  -8.5455   1.4702   2.6933   6.1261   7.0544

          k = 0.0624 0.2523 0.3444 (  1598 PWs)   bands (ev):

    -9.3540  -8.9307   1.5569   2.0258   6.8482   7.8368

          k = 0.0624 0.3965 0.0689 (  1608 PWs)   bands (ev):

    -9.5515  -8.4646   2.0620   2.6228   4.7190   6.0073

          k = 0.0624 0.3965 0.2067 (  1596 PWs)   bands (ev):

    -9.4009  -8.5987   1.4721   2.3106   4.8265   6.7233

          k = 0.0624 0.3965 0.3444 (  1600 PWs)   bands (ev):

    -9.1401  -8.8441   1.3068   1.6470   5.5422   6.6859

          k = 0.0624 0.5407 0.0689 (  1607 PWs)   bands (ev):

    -9.2616  -8.6420   1.7499   3.3442   3.9904   5.8018

          k = 0.0624 0.5407 0.2067 (  1605 PWs)   bands (ev):

    -9.1573  -8.6976   1.2941   2.4094   4.0679   6.6195

          k = 0.0624 0.5407 0.3444 (  1599 PWs)   bands (ev):

    -8.9883  -8.8178   1.1208   1.4858   4.9389   6.1519

          k = 0.0624-0.4686 0.0689 (  1609 PWs)   bands (ev):

    -9.3806  -8.5628   1.8851   2.9375   4.3760   5.8020

          k = 0.0624-0.4686 0.2067 (  1605 PWs)   bands (ev):

    -9.2558  -8.6503   1.3729   2.3362   4.3502   6.6529

          k = 0.0624-0.4686 0.3444 (  1596 PWs)   bands (ev):

    -9.0468  -8.8226   1.1906   1.5372   5.1433   6.3310

          k = 0.0624-0.3244 0.0689 (  1601 PWs)   bands (ev):

    -9.7305  -8.3796   1.9391   2.7549   5.0341   6.3867

          k = 0.0624-0.3244 0.2067 (  1602 PWs)   bands (ev):

    -9.5564  -8.5631   1.5049   2.4389   5.4306   6.8460

          k = 0.0624-0.3244 0.3444 (  1598 PWs)   bands (ev):

    -9.2479  -8.8828   1.4356   1.8174   6.1183   7.2032

          k = 0.0624-0.1802 0.0689 (  1597 PWs)   bands (ev):

   -10.0281  -8.2734   1.4332   3.5249   5.9129   7.4049

          k = 0.0624-0.1802 0.2067 (  1600 PWs)   bands (ev):

    -9.8217  -8.5407   1.4188   2.9735   6.8572   7.4102

          k = 0.0624-0.1802 0.3444 (  1596 PWs)   bands (ev):

    -9.4454  -8.9779   1.6620   2.2318   7.6976   8.3956

          k = 0.0624-0.0360 0.0689 (  1592 PWs)   bands (ev):

   -10.1711  -8.2364   1.1893   3.9841   6.9163   8.5208

          k = 0.0624-0.0360 0.2067 (  1592 PWs)   bands (ev):

    -9.9514  -8.5444   1.3552   3.3295   7.8790   8.8336

          k = 0.0624-0.0360 0.3444 (  1605 PWs)   bands (ev):

    -9.5469  -9.0353   1.7843   2.4865   9.0972   9.4347

          k = 0.1873 0.3244 0.0689 (  1602 PWs)   bands (ev):

    -9.6153  -8.4296   2.1798   2.5364   4.8737   5.5834

          k = 0.1873 0.3244 0.2067 (  1598 PWs)   bands (ev):

    -9.4558  -8.5819   1.6279   2.2446   4.9517   6.3843

          k = 0.1873 0.3244 0.3444 (  1595 PWs)   bands (ev):

    -9.1770  -8.8550   1.4428   1.7290   5.2995   6.3000

          k = 0.1873 0.4686 0.0689 (  1606 PWs)   bands (ev):

    -9.2803  -8.6195   1.9938   2.9289   4.3930   4.9899

          k = 0.1873 0.4686 0.2067 (  1604 PWs)   bands (ev):

    -9.1720  -8.6823   1.6647   2.2117   3.6956   6.6422

          k = 0.1873 0.4686 0.3444 (  1599 PWs)   bands (ev):

    -8.9951  -8.8136   1.3831   1.6009   4.1369   5.2268

          k = 0.1873 0.6128 0.0689 (  1610 PWs)   bands (ev):

    -9.1574  -8.7077   1.8662   3.3179   3.9611   5.1466

          k = 0.1873 0.6128 0.2067 (  1609 PWs)   bands (ev):

    -9.0721  -8.7383   1.5989   2.4196   3.2818   6.5481

          k = 0.1873 0.6128 0.3444 (  1605 PWs)   bands (ev):

    -8.9395  -8.8155   1.3583   1.6132   3.8650   4.9959

          k = 0.1873-0.3965 0.0689 (  1605 PWs)   bands (ev):

    -9.4461  -8.5172   2.2225   2.5438   4.7383   5.0823

          k = 0.1873-0.3965 0.2067 (  1603 PWs)   bands (ev):

    -9.3106  -8.6239   1.7067   2.1126   4.2759   6.4676

          k = 0.1873-0.3965 0.3444 (  1601 PWs)   bands (ev):

    -9.0802  -8.8264   1.4131   1.6300   4.6337   5.6721

          k = 0.1873-0.2523 0.0689 (  1601 PWs)   bands (ev):

    -9.7688  -8.3627   1.8919   2.8470   5.1008   6.1955

          k = 0.1873-0.2523 0.2067 (  1598 PWs)   bands (ev):

    -9.5902  -8.5572   1.5342   2.4685   5.6415   6.5052

          k = 0.1873-0.2523 0.3444 (  1592 PWs)   bands (ev):

    -9.2720  -8.8927   1.4910   1.8723   6.0739   7.0582

          k = 0.1873-0.1081 0.0689 (  1593 PWs)   bands (ev):

    -9.9826  -8.2871   1.5114   3.3814   5.7227   7.4652

          k = 0.1873-0.1081 0.2067 (  1597 PWs)   bands (ev):

    -9.7806  -8.5415   1.4343   2.8730   6.4718   7.8503

          k = 0.1873-0.1081 0.3444 (  1598 PWs)   bands (ev):

    -9.4139  -8.9611   1.6217   2.1563   7.4141   8.4053

          k = 0.3122 0.5407 0.0689 (  1606 PWs)   bands (ev):

    -8.9924  -8.8386   1.9181   3.4160   3.7368   5.1510

          k = 0.3122 0.5407 0.2067 (  1618 PWs)   bands (ev):

    -8.9421  -8.8279   2.1663   2.2390   2.6129   5.9611

          k = 0.3122 0.5407 0.3444 (  1610 PWs)   bands (ev):

    -8.8751  -8.8327   1.6439   1.6906   3.1861   4.3716

          k = 0.3122 0.6849 0.0689 (  1608 PWs)   bands (ev):

    -9.1326  -8.7228   1.9462   3.1635   4.0676   4.9649

          k = 0.3122 0.6849 0.2067 (  1606 PWs)   bands (ev):

    -9.0519  -8.7478   1.8834   2.2059   3.1138   6.2404

          k = 0.3122 0.6849 0.3444 (  1610 PWs)   bands (ev):

    -8.9281  -8.8152   1.5162   1.6444   3.5499   4.6784

          k = 0.3122-0.3244 0.0689 (  1601 PWs)   bands (ev):

    -9.4232  -8.5333   2.0443   2.7320   4.5737   5.3889

          k = 0.3122-0.3244 0.2067 (  1605 PWs)   bands (ev):

    -9.2914  -8.6331   1.5304   2.2477   4.3042   6.5551

          k = 0.3122-0.3244 0.3444 (  1600 PWs)   bands (ev):

    -9.0684  -8.8249   1.3096   1.5986   4.8399   5.9337

          k = 0.3122-0.1802 0.0689 (  1602 PWs)   bands (ev):

    -9.6563  -8.4135   2.0133   2.6475   4.8882   6.6630

          k = 0.3122-0.1802 0.2067 (  1602 PWs)   bands (ev):

    -9.4916  -8.5762   1.4728   2.3818   5.1768   7.0552

          k = 0.3122-0.1802 0.3444 (  1604 PWs)   bands (ev):

    -9.2023  -8.8652   1.3597   1.7305   6.0194   7.2057

          k = 0.4370 0.7569 0.0689 (  1607 PWs)   bands (ev):

    -9.2029  -8.6794   1.7837   3.4423   3.8821   5.4850

          k = 0.4370 0.7569 0.2067 (  1608 PWs)   bands (ev):

    -9.1092  -8.7206   1.3980   2.4465   3.6613   6.6915

          k = 0.4370 0.7569 0.3444 (  1604 PWs)   bands (ev):

    -8.9606  -8.8163   1.2068   1.5379   4.3815   5.5365

          k = 0.4370-0.2523 0.0689 (  1613 PWs)   bands (ev):

    -9.3240  -8.6010   1.7831   3.1469   4.1759   5.9398

          k = 0.4370-0.2523 0.2067 (  1610 PWs)   bands (ev):

    -9.2088  -8.6729   1.2880   2.3762   4.3119   6.6453

          k = 0.4370-0.2523 0.3444 (  1600 PWs)   bands (ev):

    -9.0186  -8.8200   1.1177   1.4879   5.2655   6.5264

     the Fermi energy is    -0.3682 ev

!    total energy              =      -4.66237524 Ry
     Harris-Foulkes estimate   =      -4.66237524 Ry
     estimated scf accuracy    <          5.5E-12 Ry

     The total energy is the sum of the following terms:

     one-electron contribution =      -2.49295885 Ry
     hartree contribution      =       1.68346741 Ry
     xc contribution           =      -2.74507452 Ry
     ewald contribution        =      -1.10780928 Ry
     smearing contrib. (-TS)   =       0.00000000 Ry

     convergence has been achieved in   6 iterations

     Forces acting on atoms (cartesian axes, Ry/au):

     atom    1 type  1   force =    -0.00000000    0.00000000   -0.00009619
     atom    2 type  1   force =     0.00000000    0.00000000    0.00009619
     atom    3 type  1   force =     0.00000000    0.00000000   -0.00009619
     atom    4 type  1   force =    -0.00000000    0.00000000    0.00009619

     Total force =     0.000192     Total SCF correction =     0.000001


     Computing stress (Cartesian axis) and pressure

          total   stress  (Ry/bohr**3)                   (kbar)     P=    2.19
   0.00001152   0.00000000  -0.00000000          1.70      0.00     -0.00
   0.00000000   0.00001152   0.00000000          0.00      1.70      0.00
  -0.00000000   0.00000000   0.00002162         -0.00      0.00      3.18


     number of scf cycles    =   5
     number of bfgs steps    =   4

     enthalpy old            =      -4.6623688165 Ry
     enthalpy new            =      -4.6623752382 Ry

     CASE: enthalpy_new < enthalpy_old

     new trust radius        =       0.0026974306 bohr
     new conv_thr            =            1.0E-10 Ry

     new unit-cell volume =    377.83847 a.u.^3 (    55.98988 Ang^3 )
     density =      0.11957 g/cm^3

CELL_PARAMETERS (angstrom)
   3.767779332   0.000000000   0.000000000
  -1.883889666   3.262992885  -0.000000000
  -0.000000000   0.000000000   4.554156842

ATOMIC_POSITIONS (crystal)
H        0.333333000   0.666667000   0.166397185
H        0.666667000   0.333333000   0.833602815
H        0.666667000   0.333333000   0.666397185
H        0.333333000   0.666667000   0.333602815



     Writing output data file relax.save/
     NEW-OLD atomic charge density approx. for the potential
     extrapolated charge    4.00641, renormalised to    4.00000

     total cpu time spent up to now is       10.8 secs

     Self-consistent Calculation

     iteration #  1     ecut=    40.00 Ry     beta= 0.70
     Davidson diagonalization with overlap
     ethr =  1.00E-06,  avg # of iterations =  2.0

     Threshold (ethr) on eigenvalues was too large:
     Diagonalizing with lowered threshold

     Davidson diagonalization with overlap
     ethr =  2.41E-09,  avg # of iterations =  1.0

     total cpu time spent up to now is       11.3 secs

     total energy              =      -4.66238341 Ry
     Harris-Foulkes estimate   =      -4.66262951 Ry
     estimated scf accuracy    <       0.00000010 Ry

     iteration #  2     ecut=    40.00 Ry     beta= 0.70
     Davidson diagonalization with overlap
     ethr =  2.41E-09,  avg # of iterations =  2.3

     total cpu time spent up to now is       11.7 secs

     total energy              =      -4.66238482 Ry
     Harris-Foulkes estimate   =      -4.66238481 Ry
     estimated scf accuracy    <       0.00000082 Ry

     iteration #  3     ecut=    40.00 Ry     beta= 0.70
     Davidson diagonalization with overlap
     ethr =  2.41E-09,  avg # of iterations =  1.0

     total cpu time spent up to now is       12.0 secs

     total energy              =      -4.66238438 Ry
     Harris-Foulkes estimate   =      -4.66238482 Ry
     estimated scf accuracy    <       0.00000085 Ry

     iteration #  4     ecut=    40.00 Ry     beta= 0.70
     Davidson diagonalization with overlap
     ethr =  2.41E-09,  avg # of iterations =  2.0

     total cpu time spent up to now is       12.3 secs

     total energy              =      -4.66238446 Ry
     Harris-Foulkes estimate   =      -4.66238446 Ry
     estimated scf accuracy    <          1.1E-09 Ry

     iteration #  5     ecut=    40.00 Ry     beta= 0.70
     Davidson diagonalization with overlap
     ethr =  2.78E-11,  avg # of iterations =  2.0

     total cpu time spent up to now is       12.7 secs

     total energy              =      -4.66238446 Ry
     Harris-Foulkes estimate   =      -4.66238446 Ry
     estimated scf accuracy    <          1.9E-09 Ry

     iteration #  6     ecut=    40.00 Ry     beta= 0.70
     Davidson diagonalization with overlap
     ethr =  2.78E-11,  avg # of iterations =  2.0

     total cpu time spent up to now is       13.0 secs

     End of self-consistent calculation

          k = 0.0624 0.1081 0.0688 (  1603 PWs)   bands (ev):

   -10.1221  -8.2538   1.2686   3.8113   6.4697   7.9686

          k = 0.0624 0.1081 0.2065 (  1598 PWs)   bands (ev):

    -9.9073  -8.5468   1.3739   3.1933   7.4491   8.0387

          k = 0.0624 0.1081 0.3442 (  1599 PWs)   bands (ev):

    -9.5134  -9.0180   1.7366   2.3891   8.5810   8.7723

          k = 0.0624 0.2522 0.0688 (  1603 PWs)   bands (ev):

    -9.8944  -8.3215   1.6626   3.1321   5.4081   6.8593

          k = 0.0624 0.2522 0.2065 (  1604 PWs)   bands (ev):

    -9.7023  -8.5501   1.4673   2.6862   6.1185   7.0460

          k = 0.0624 0.2522 0.3442 (  1598 PWs)   bands (ev):

    -9.3559  -8.9340   1.5533   2.0207   6.8401   7.8270

          k = 0.0624 0.3963 0.0688 (  1608 PWs)   bands (ev):

    -9.5527  -8.4695   2.0581   2.6175   4.7113   6.0004

          k = 0.0624 0.3963 0.2065 (  1596 PWs)   bands (ev):

    -9.4026  -8.6031   1.4697   2.3055   4.8202   6.7151

          k = 0.0624 0.3963 0.3442 (  1600 PWs)   bands (ev):

    -9.1427  -8.8477   1.3045   1.6437   5.5351   6.6771

          k = 0.0624 0.5404 0.0688 (  1607 PWs)   bands (ev):

    -9.2637  -8.6461   1.7462   3.3393   3.9838   5.7935

          k = 0.0624 0.5404 0.2065 (  1605 PWs)   bands (ev):

    -9.1598  -8.7016   1.2919   2.4055   4.0623   6.6117

          k = 0.0624 0.5404 0.3442 (  1599 PWs)   bands (ev):

    -8.9914  -8.8215   1.1192   1.4836   4.9321   6.1434

          k = 0.0624-0.4684 0.0688 (  1609 PWs)   bands (ev):

    -9.3823  -8.5672   1.8811   2.9328   4.3688   5.7948

          k = 0.0624-0.4684 0.2065 (  1605 PWs)   bands (ev):

    -9.2579  -8.6545   1.3706   2.3319   4.3443   6.6449

          k = 0.0624-0.4684 0.3442 (  1596 PWs)   bands (ev):

    -9.0497  -8.8263   1.1888   1.5346   5.1364   6.3225

          k = 0.0624-0.3243 0.0688 (  1601 PWs)   bands (ev):

    -9.7311  -8.3848   1.9358   2.7481   5.0265   6.3796

          k = 0.0624-0.3243 0.2065 (  1602 PWs)   bands (ev):

    -9.5577  -8.5677   1.5023   2.4328   5.4237   6.8377

          k = 0.0624-0.3243 0.3442 (  1598 PWs)   bands (ev):

    -9.2501  -8.8862   1.4327   1.8132   6.1108   7.1941

          k = 0.0624-0.1801 0.0688 (  1597 PWs)   bands (ev):

   -10.0280  -8.2790   1.4301   3.5153   5.9055   7.3968

          k = 0.0624-0.1801 0.2065 (  1600 PWs)   bands (ev):

    -9.8221  -8.5454   1.4155   2.9654   6.8485   7.4019

          k = 0.0624-0.1801 0.3442 (  1596 PWs)   bands (ev):

    -9.4470  -8.9810   1.6578   2.2259   7.6887   8.3847

          k = 0.0624-0.0360 0.0688 (  1592 PWs)   bands (ev):

   -10.1706  -8.2422   1.1864   3.9728   6.9078   8.5112

          k = 0.0624-0.0360 0.2065 (  1592 PWs)   bands (ev):

    -9.9515  -8.5491   1.3516   3.3202   7.8689   8.8233

          k = 0.0624-0.0360 0.3442 (  1605 PWs)   bands (ev):

    -9.5483  -9.0382   1.7793   2.4796   9.0857   9.4224

          k = 0.1872 0.3243 0.0688 (  1602 PWs)   bands (ev):

    -9.6163  -8.4346   2.1763   2.5304   4.8668   5.5760

          k = 0.1872 0.3243 0.2065 (  1598 PWs)   bands (ev):

    -9.4573  -8.5864   1.6254   2.2392   4.9462   6.3749

          k = 0.1872 0.3243 0.3442 (  1595 PWs)   bands (ev):

    -9.1794  -8.8585   1.4402   1.7253   5.2933   6.2921

          k = 0.1872 0.4684 0.0688 (  1606 PWs)   bands (ev):

    -9.2824  -8.6237   1.9899   2.9247   4.3862   4.9827

          k = 0.1872 0.4684 0.2065 (  1604 PWs)   bands (ev):

    -9.1744  -8.6863   1.6620   2.2080   3.6912   6.6321

          k = 0.1872 0.4684 0.3442 (  1599 PWs)   bands (ev):

    -8.9982  -8.8173   1.3812   1.5984   4.1317   5.2199

          k = 0.1872 0.6125 0.0688 (  1610 PWs)   bands (ev):

    -9.1598  -8.7116   1.8628   3.3135   3.9549   5.1390

          k = 0.1872 0.6125 0.2065 (  1609 PWs)   bands (ev):

    -9.0748  -8.7422   1.5964   2.4159   3.2777   6.5390

          k = 0.1872 0.6125 0.3442 (  1605 PWs)   bands (ev):

    -8.9427  -8.8192   1.3566   1.6111   3.8599   4.9891

          k = 0.1872-0.3963 0.0688 (  1605 PWs)   bands (ev):

    -9.4476  -8.5219   2.2179   2.5398   4.7311   5.0755

          k = 0.1872-0.3963 0.2065 (  1603 PWs)   bands (ev):

    -9.3126  -8.6282   1.7042   2.1081   4.2709   6.4578

          k = 0.1872-0.3963 0.3442 (  1601 PWs)   bands (ev):

    -9.0830  -8.8300   1.4109   1.6269   4.6281   5.6648

          k = 0.1872-0.2522 0.0688 (  1601 PWs)   bands (ev):

    -9.7694  -8.3680   1.8885   2.8398   5.0938   6.1880

          k = 0.1872-0.2522 0.2065 (  1598 PWs)   bands (ev):

    -9.5913  -8.5618   1.5314   2.4622   5.6351   6.4962

          k = 0.1872-0.2522 0.3442 (  1592 PWs)   bands (ev):

    -9.2742  -8.8961   1.4879   1.8678   6.0669   7.0495

          k = 0.1872-0.1081 0.0688 (  1593 PWs)   bands (ev):

    -9.9825  -8.2927   1.5083   3.3723   5.7151   7.4574

          k = 0.1872-0.1081 0.2065 (  1597 PWs)   bands (ev):

    -9.7812  -8.5461   1.4312   2.8653   6.4637   7.8420

          k = 0.1872-0.1081 0.3442 (  1598 PWs)   bands (ev):

    -9.4156  -8.9643   1.6177   2.1506   7.4051   8.3945

          k = 0.3120 0.5404 0.0688 (  1606 PWs)   bands (ev):

    -8.9953  -8.8421   1.9152   3.4111   3.7312   5.1427

          k = 0.3120 0.5404 0.2065 (  1618 PWs)   bands (ev):

    -8.9453  -8.8315   2.1631   2.2362   2.6095   5.9527

          k = 0.3120 0.5404 0.3442 (  1610 PWs)   bands (ev):

    -8.8786  -8.8363   1.6422   1.6887   3.1816   4.3654

          k = 0.3120 0.6845 0.0688 (  1608 PWs)   bands (ev):

    -9.1351  -8.7267   1.9429   3.1591   4.0615   4.9570

          k = 0.3120 0.6845 0.2065 (  1606 PWs)   bands (ev):

    -9.0547  -8.7517   1.8805   2.2027   3.1099   6.2317

          k = 0.3120 0.6845 0.3442 (  1610 PWs)   bands (ev):

    -8.9314  -8.8189   1.5144   1.6423   3.5452   4.6719

          k = 0.3120-0.3243 0.0688 (  1601 PWs)   bands (ev):

    -9.4248  -8.5378   2.0401   2.7275   4.5663   5.3823

          k = 0.3120-0.3243 0.2065 (  1605 PWs)   bands (ev):

    -9.2935  -8.6374   1.5279   2.2433   4.2989   6.5459

          k = 0.3120-0.3243 0.3442 (  1600 PWs)   bands (ev):

    -9.0713  -8.8286   1.3075   1.5957   4.8338   5.9259

          k = 0.3120-0.1801 0.0688 (  1602 PWs)   bands (ev):

    -9.6572  -8.4185   2.0098   2.6413   4.8804   6.6560

          k = 0.3120-0.1801 0.2065 (  1602 PWs)   bands (ev):

    -9.4930  -8.5807   1.4704   2.3761   5.1699   7.0476

          k = 0.3120-0.1801 0.3442 (  1604 PWs)   bands (ev):

    -9.2046  -8.8687   1.3571   1.7267   6.0116   7.1961

          k = 0.4368 0.7566 0.0688 (  1607 PWs)   bands (ev):

    -9.2052  -8.6834   1.7801   3.4377   3.8756   5.4779

          k = 0.4368 0.7566 0.2065 (  1608 PWs)   bands (ev):

    -9.1118  -8.7246   1.3956   2.4427   3.6566   6.6824

          k = 0.4368 0.7566 0.3442 (  1604 PWs)   bands (ev):

    -8.9638  -8.8200   1.2052   1.5357   4.3757   5.5290

          k = 0.4368-0.2522 0.0688 (  1613 PWs)   bands (ev):

    -9.3259  -8.6053   1.7792   3.1420   4.1690   5.9309

          k = 0.4368-0.2522 0.2065 (  1610 PWs)   bands (ev):

    -9.2111  -8.6770   1.2858   2.3721   4.3057   6.6381

          k = 0.4368-0.2522 0.3442 (  1600 PWs)   bands (ev):

    -9.0216  -8.8237   1.1161   1.4855   5.2581   6.5173

     the Fermi energy is    -0.3741 ev

!    total energy              =      -4.66238446 Ry
     Harris-Foulkes estimate   =      -4.66238446 Ry
     estimated scf accuracy    <          1.7E-12 Ry

     The total energy is the sum of the following terms:

     one-electron contribution =      -2.49701011 Ry
     hartree contribution      =       1.68513600 Ry
     xc contribution           =      -2.74521968 Ry
     ewald contribution        =      -1.10529067 Ry
     smearing contrib. (-TS)   =       0.00000000 Ry

     convergence has been achieved in   6 iterations

     Forces acting on atoms (cartesian axes, Ry/au):

     atom    1 type  1   force =    -0.00000000    0.00000000   -0.00034567
     atom    2 type  1   force =    -0.00000000   -0.00000000    0.00034567
     atom    3 type  1   force =    -0.00000000    0.00000000   -0.00034567
     atom    4 type  1   force =    -0.00000000   -0.00000000    0.00034567

     Total force =     0.000691     Total SCF correction =     0.000000


     Computing stress (Cartesian axis) and pressure

          total   stress  (Ry/bohr**3)                   (kbar)     P=    2.26
   0.00001137   0.00000000  -0.00000000          1.67      0.00     -0.00
   0.00000000   0.00001137   0.00000000          0.00      1.67      0.00
  -0.00000000  -0.00000000   0.00002327         -0.00     -0.00      3.42


     number of scf cycles    =   6
     number of bfgs steps    =   5

     enthalpy old            =      -4.6623752382 Ry
     enthalpy new            =      -4.6623844633 Ry

     CASE: enthalpy_new < enthalpy_old

     new trust radius        =       0.0040465816 bohr
     new conv_thr            =            1.0E-10 Ry

     new unit-cell volume =    378.74076 a.u.^3 (    56.12359 Ang^3 )
     density =      0.11929 g/cm^3

CELL_PARAMETERS (angstrom)
   3.770313712   0.000000000   0.000000000
  -1.885156856   3.265187722  -0.000000000
  -0.000000000   0.000000000   4.558897223

ATOMIC_POSITIONS (crystal)
H        0.333333000   0.666667000   0.166503107
H        0.666667000   0.333333000   0.833496893
H        0.666667000   0.333333000   0.666503107
H        0.333333000   0.666667000   0.333496893



     Writing output data file relax.save/
     NEW-OLD atomic charge density approx. for the potential
     extrapolated charge    4.00953, renormalised to    4.00000

     total cpu time spent up to now is       13.1 secs

     Self-consistent Calculation

     iteration #  1     ecut=    40.00 Ry     beta= 0.70
     Davidson diagonalization with overlap
     ethr =  1.00E-06,  avg # of iterations =  2.0

     Threshold (ethr) on eigenvalues was too large:
     Diagonalizing with lowered threshold

     Davidson diagonalization with overlap
[...]

     24 Sym. Ops., with inversion, found (12 have fractional translation)



   Cartesian axes

     site n.     atom                  positions (alat units)
         1           H   tau(   1) = (  -0.0000005   0.6132723   0.2304578  )
         2           H   tau(   2) = (   0.5311096   0.3066357   1.0965445  )
         3           H   tau(   3) = (   0.5311096   0.3066357   0.8939590  )
         4           H   tau(   4) = (  -0.0000005   0.6132723   0.4330433  )

     number of k points=    60  Fermi-Dirac smearing, width (Ry)=  0.0020
                       cart. coord. in units 2pi/alat
        k(    1) = (   0.0588391   0.1019124   0.0627982), wk =   0.0208333
        k(    2) = (   0.0588391   0.1019124   0.1883945), wk =   0.0208333
        k(    3) = (   0.0588391   0.1019124   0.3139909), wk =   0.0208333
        k(    4) = (   0.0588391   0.2377955   0.0627982), wk =   0.0416667
        k(    5) = (   0.0588391   0.2377955   0.1883945), wk =   0.0416667
        k(    6) = (   0.0588391   0.2377955   0.3139909), wk =   0.0416667
        k(    7) = (   0.0588391   0.3736787   0.0627982), wk =   0.0416667
        k(    8) = (   0.0588391   0.3736787   0.1883945), wk =   0.0416667
        k(    9) = (   0.0588391   0.3736787   0.3139909), wk =   0.0416667
        k(   10) = (   0.0588391   0.5095618   0.0627982), wk =   0.0416667
        k(   11) = (   0.0588391   0.5095618   0.1883945), wk =   0.0416667
        k(   12) = (   0.0588391   0.5095618   0.3139909), wk =   0.0416667
        k(   13) = (   0.0588391  -0.4416203   0.0627982), wk =   0.0416667
        k(   14) = (   0.0588391  -0.4416203   0.1883945), wk =   0.0416667
        k(   15) = (   0.0588391  -0.4416203   0.3139909), wk =   0.0416667
        k(   16) = (   0.0588391  -0.3057371   0.0627982), wk =   0.0416667
        k(   17) = (   0.0588391  -0.3057371   0.1883945), wk =   0.0416667
        k(   18) = (   0.0588391  -0.3057371   0.3139909), wk =   0.0416667
        k(   19) = (   0.0588391  -0.1698539   0.0627982), wk =   0.0416667
        k(   20) = (   0.0588391  -0.1698539   0.1883945), wk =   0.0416667
        k(   21) = (   0.0588391  -0.1698539   0.3139909), wk =   0.0416667
        k(   22) = (   0.0588391  -0.0339708   0.0627982), wk =   0.0208333
        k(   23) = (   0.0588391  -0.0339708   0.1883945), wk =   0.0208333
        k(   24) = (   0.0588391  -0.0339708   0.3139909), wk =   0.0208333
        k(   25) = (   0.1765174   0.3057371   0.0627982), wk =   0.0208333
        k(   26) = (   0.1765174   0.3057371   0.1883945), wk =   0.0208333
        k(   27) = (   0.1765174   0.3057371   0.3139909), wk =   0.0208333
        k(   28) = (   0.1765174   0.4416203   0.0627982), wk =   0.0416667
        k(   29) = (   0.1765174   0.4416203   0.1883945), wk =   0.0416667
        k(   30) = (   0.1765174   0.4416203   0.3139909), wk =   0.0416667
        k(   31) = (   0.1765174   0.5775034   0.0627982), wk =   0.0416667
        k(   32) = (   0.1765174   0.5775034   0.1883945), wk =   0.0416667
        k(   33) = (   0.1765174   0.5775034   0.3139909), wk =   0.0416667
        k(   34) = (   0.1765174  -0.3736787   0.0627982), wk =   0.0416667
        k(   35) = (   0.1765174  -0.3736787   0.1883945), wk =   0.0416667
        k(   36) = (   0.1765174  -0.3736787   0.3139909), wk =   0.0416667
        k(   37) = (   0.1765174  -0.2377955   0.0627982), wk =   0.0416667
        k(   38) = (   0.1765174  -0.2377955   0.1883945), wk =   0.0416667
        k(   39) = (   0.1765174  -0.2377955   0.3139909), wk =   0.0416667
        k(   40) = (   0.1765174  -0.1019124   0.0627982), wk =   0.0208333
        k(   41) = (   0.1765174  -0.1019124   0.1883945), wk =   0.0208333
        k(   42) = (   0.1765174  -0.1019124   0.3139909), wk =   0.0208333
        k(   43) = (   0.2941957   0.5095618   0.0627982), wk =   0.0208333
        k(   44) = (   0.2941957   0.5095618   0.1883945), wk =   0.0208333
        k(   45) = (   0.2941957   0.5095618   0.3139909), wk =   0.0208333
        k(   46) = (   0.2941957   0.6454450   0.0627982), wk =   0.0416667
        k(   47) = (   0.2941957   0.6454450   0.1883945), wk =   0.0416667
        k(   48) = (   0.2941957   0.6454450   0.3139909), wk =   0.0416667
        k(   49) = (   0.2941957  -0.3057371   0.0627982), wk =   0.0416667
        k(   50) = (   0.2941957  -0.3057371   0.1883945), wk =   0.0416667
        k(   51) = (   0.2941957  -0.3057371   0.3139909), wk =   0.0416667
        k(   52) = (   0.2941957  -0.1698539   0.0627982), wk =   0.0208333
        k(   53) = (   0.2941957  -0.1698539   0.1883945), wk =   0.0208333
        k(   54) = (   0.2941957  -0.1698539   0.3139909), wk =   0.0208333
        k(   55) = (   0.4118740   0.7133866   0.0627982), wk =   0.0208333
        k(   56) = (   0.4118740   0.7133866   0.1883945), wk =   0.0208333
        k(   57) = (   0.4118740   0.7133866   0.3139909), wk =   0.0208333
        k(   58) = (   0.4118740  -0.2377955   0.0627982), wk =   0.0208333
        k(   59) = (   0.4118740  -0.2377955   0.1883945), wk =   0.0208333
        k(   60) = (   0.4118740  -0.2377955   0.3139909), wk =   0.0208333

     Dense  grid:    22195 G-vectors     FFT dimensions: (  36,  36,  45)

     Smooth grid:    15985 G-vectors     FFT dimensions: (  32,  32,  40)

     Estimated max dynamical RAM per process >       3.89 MB

     Estimated total dynamical RAM >      31.09 MB

     Initial potential from superposition of free atoms

     starting charge    3.99996, renormalised to    4.00000
     Starting wfcs are    4 randomized atomic wfcs +    2 random wfcs

     total cpu time spent up to now is       43.9 secs

     Self-consistent Calculation

     iteration #  1     ecut=    40.00 Ry     beta= 0.70
     Davidson diagonalization with overlap
     c_bands:  1 eigenvalues not converged
     c_bands:  1 eigenvalues not converged
     ethr =  1.00E-06,  avg # of iterations = 12.9

     total cpu time spent up to now is       45.8 secs

     total energy              =      -4.64987267 Ry
     Harris-Foulkes estimate   =      -4.74722948 Ry
     estimated scf accuracy    <       0.20618688 Ry

     iteration #  2     ecut=    40.00 Ry     beta= 0.70
     Davidson diagonalization with overlap
     ethr =  5.15E-03,  avg # of iterations =  1.0

     total cpu time spent up to now is       46.1 secs

     total energy              =      -4.66255816 Ry
     Harris-Foulkes estimate   =      -4.66392844 Ry
     estimated scf accuracy    <       0.00262923 Ry

     iteration #  3     ecut=    40.00 Ry     beta= 0.70
     Davidson diagonalization with overlap
     ethr =  6.57E-05,  avg # of iterations =  3.1

     total cpu time spent up to now is       46.6 secs

     total energy              =      -4.66294309 Ry
     Harris-Foulkes estimate   =      -4.66294353 Ry
     estimated scf accuracy    <       0.00001355 Ry

     iteration #  4     ecut=    40.00 Ry     beta= 0.70
     Davidson diagonalization with overlap
     ethr =  3.39E-07,  avg # of iterations =  2.7

     total cpu time spent up to now is       47.1 secs

     total energy              =      -4.66294484 Ry
     Harris-Foulkes estimate   =      -4.66294508 Ry
     estimated scf accuracy    <       0.00000067 Ry

     iteration #  5     ecut=    40.00 Ry     beta= 0.70
     Davidson diagonalization with overlap
     ethr =  1.68E-08,  avg # of iterations =  1.0

     total cpu time spent up to now is       47.4 secs

     total energy              =      -4.66294492 Ry
     Harris-Foulkes estimate   =      -4.66294492 Ry
     estimated scf accuracy    <          4.3E-10 Ry

     iteration #  6     ecut=    40.00 Ry     beta= 0.70
     Davidson diagonalization with overlap
     ethr =  1.07E-11,  avg # of iterations =  2.5

     total cpu time spent up to now is       47.8 secs

     total energy              =      -4.66294492 Ry
     Harris-Foulkes estimate   =      -4.66294492 Ry
     estimated scf accuracy    <          2.2E-10 Ry

     iteration #  7     ecut=    40.00 Ry     beta= 0.70
     Davidson diagonalization with overlap
     ethr =  5.39E-12,  avg # of iterations =  2.0

     total cpu time spent up to now is       48.2 secs

     total energy              =      -4.66294492 Ry
     Harris-Foulkes estimate   =      -4.66294492 Ry
     estimated scf accuracy    <          1.6E-10 Ry

     iteration #  8     ecut=    40.00 Ry     beta= 0.70
     Davidson diagonalization with overlap
     ethr =  3.91E-12,  avg # of iterations =  1.0

     total cpu time spent up to now is       48.4 secs

     End of self-consistent calculation

          k = 0.0588 0.1019 0.0628 (  1995 PWs)   bands (ev):

   -10.0104  -8.7746   0.7823   2.6241   5.4685   6.8125

          k = 0.0588 0.1019 0.1884 (  1996 PWs)   bands (ev):

    -9.8627  -8.9605   0.8603   2.1783   6.2340   6.8858

          k = 0.0588 0.1019 0.3140 (  2005 PWs)   bands (ev):

    -9.5951  -9.2658   1.1210   1.5941   7.2952   7.2971

          k = 0.0588 0.2378 0.0628 (  2001 PWs)   bands (ev):

    -9.8483  -8.8123   1.1455   2.2030   4.5028   5.8564

          k = 0.0588 0.2378 0.1884 (  1998 PWs)   bands (ev):

    -9.7184  -8.9598   1.0087   1.8596   5.1258   5.9840

          k = 0.0588 0.2378 0.3140 (  1993 PWs)   bands (ev):

    -9.4870  -9.2092   1.0577   1.3821   5.7955   6.5720

          k = 0.0588 0.3737 0.0628 (  1996 PWs)   bands (ev):

    -9.6103  -8.8993   1.5270   1.9315   3.7740   5.0730

          k = 0.0588 0.3737 0.1884 (  1991 PWs)   bands (ev):

    -9.5123  -8.9896   1.0904   1.6733   3.9830   5.6911

          k = 0.0588 0.3737 0.3140 (  1985 PWs)   bands (ev):

    -9.3434  -9.1512   0.9531   1.1900   4.6225   5.5822

          k = 0.0588 0.5096 0.0628 (  1987 PWs)   bands (ev):

    -9.4153  -9.0066   1.3021   2.6241   3.1337   4.6749

          k = 0.0588 0.5096 0.1884 (  1989 PWs)   bands (ev):

    -9.3503  -9.0490   0.9668   1.8685   3.2970   5.6421

          k = 0.0588 0.5096 0.3140 (  1991 PWs)   bands (ev):

    -9.2439  -9.1328   0.8499   1.1426   4.0628   5.0896

          k = 0.0588-0.4416 0.0628 (  1986 PWs)   bands (ev):

    -9.4945  -8.9584   1.3980   2.2506   3.4622   4.8097

          k = 0.0588-0.4416 0.1884 (  1989 PWs)   bands (ev):

    -9.4152  -9.0204   1.0234   1.7639   3.5554   5.6512

          k = 0.0588-0.4416 0.3140 (  1980 PWs)   bands (ev):

    -9.2819  -9.1365   0.8901   1.1535   4.2541   5.2564

          k = 0.0588-0.3057 0.0628 (  1996 PWs)   bands (ev):

    -9.7337  -8.8490   1.4030   1.9641   4.1036   5.4316

          k = 0.0588-0.3057 0.1884 (  1994 PWs)   bands (ev):

    -9.6183  -8.9691   1.0847   1.7099   4.5185   5.7907

          k = 0.0588-0.3057 0.3140 (  1995 PWs)   bands (ev):

    -9.4153  -9.1771   1.0122   1.2691   5.1453   6.0442

          k = 0.0588-0.1699 0.0628 (  2003 PWs)   bands (ev):

    -9.9431  -8.7884   0.9307   2.4403   4.9775   6.3301

          k = 0.0588-0.1699 0.1884 (  1998 PWs)   bands (ev):

    -9.8024  -8.9583   0.9243   2.0345   5.7389   6.3264

          k = 0.0588-0.1699 0.3140 (  1997 PWs)   bands (ev):

    -9.5493  -9.2408   1.0938   1.4994   6.5355   6.9908

          k = 0.0588-0.0340 0.0628 (  1994 PWs)   bands (ev):

   -10.0453  -8.7684   0.7070   2.7246   5.8264   7.1059

          k = 0.0588-0.0340 0.1884 (  1987 PWs)   bands (ev):

    -9.8940  -8.9625   0.8266   2.2584   6.5724   7.4095

          k = 0.0588-0.0340 0.3140 (  2005 PWs)   bands (ev):

    -9.6193  -9.2796   1.1359   1.6467   7.5814   7.8340

          k = 0.1765 0.3057 0.0628 (  1992 PWs)   bands (ev):

    -9.6538  -8.8787   1.6202   1.8386   4.0178   4.6448

          k = 0.1765 0.3057 0.1884 (  1984 PWs)   bands (ev):

    -9.5493  -8.9799   1.2130   1.5952   4.2097   5.2036

          k = 0.1765 0.3057 0.3140 (  1995 PWs)   bands (ev):

    -9.3677  -9.1585   1.0488   1.2292   4.5038   5.3130

          k = 0.1765 0.4416 0.0628 (  1989 PWs)   bands (ev):

    -9.4263  -8.9945   1.5251   2.2955   3.5192   4.0977

          k = 0.1765 0.4416 0.1884 (  1987 PWs)   bands (ev):

    -9.3588  -9.0407   1.2767   1.7016   3.0880   5.3887

          k = 0.1765 0.4416 0.3140 (  1975 PWs)   bands (ev):

    -9.2476  -9.1304   1.0686   1.2266   3.4657   4.3610

          k = 0.1765 0.5775 0.0628 (  1990 PWs)   bands (ev):

    -9.3448  -9.0493   1.4501   2.6510   3.1420   4.2132

          k = 0.1765 0.5775 0.1884 (  1987 PWs)   bands (ev):

    -9.2932  -9.0753   1.2365   1.9025   2.7230   5.5371

          k = 0.1765 0.5775 0.3140 (  1983 PWs)   bands (ev):

    -9.2115  -9.1312   1.0651   1.2693   3.2154   4.1501

          k = 0.1765-0.3737 0.0628 (  1986 PWs)   bands (ev):

    -9.5380  -8.9316   1.6590   1.9449   3.8398   4.2060

          k = 0.1765-0.3737 0.1884 (  1989 PWs)   bands (ev):

    -9.4511  -9.0050   1.3052   1.5511   3.6069   5.2472

          k = 0.1765-0.3737 0.3140 (  1982 PWs)   bands (ev):

    -9.3035  -9.1393   1.0651   1.1989   3.9146   4.7612

          k = 0.1765-0.2378 0.0628 (  2001 PWs)   bands (ev):

    -9.7603  -8.8392   1.3542   2.0229   4.2329   5.2209

          k = 0.1765-0.2378 0.1884 (  1997 PWs)   bands (ev):

    -9.6414  -8.9658   1.0967   1.7239   4.7848   5.3837

          k = 0.1765-0.2378 0.3140 (  1998 PWs)   bands (ev):

    -9.4315  -9.1837   1.0441   1.2989   5.1693   5.9552

          k = 0.1765-0.1019 0.0628 (  1998 PWs)   bands (ev):

    -9.9107  -8.7960   1.0029   2.3526   4.7794   6.4260

          k = 0.1765-0.1019 0.1884 (  1997 PWs)   bands (ev):

    -9.7737  -8.9583   0.9520   1.9711   5.4130   6.7264

          k = 0.1765-0.1019 0.3140 (  1998 PWs)   bands (ev):

    -9.5278  -9.2296   1.0788   1.4559   6.2388   7.0181

          k = 0.2942 0.5096 0.0628 (  1986 PWs)   bands (ev):

    -9.2348  -9.1343   1.5663   2.7282   2.9827   4.1086

          k = 0.2942 0.5096 0.1884 (  1991 PWs)   bands (ev):

    -9.2072  -9.1332   1.7359   1.7970   2.1400   4.9294

          k = 0.2942 0.5096 0.3140 (  1977 PWs)   bands (ev):

    -9.1694  -9.1421   1.3298   1.3606   2.6329   3.6140

          k = 0.2942 0.6454 0.0628 (  1988 PWs)   bands (ev):

    -9.3275  -9.0599   1.5443   2.5173   3.2642   3.9858

          k = 0.2942 0.6454 0.1884 (  1989 PWs)   bands (ev):

    -9.2793  -9.0820   1.4754   1.7447   2.5845   5.1734

          k = 0.2942 0.6454 0.3140 (  1973 PWs)   bands (ev):

    -9.2038  -9.1311   1.2052   1.2967   2.9568   3.8847

          k = 0.2942-0.3057 0.0628 (  1990 PWs)   bands (ev):

    -9.5228  -8.9410   1.5253   2.0834   3.6501   4.5260

          k = 0.2942-0.3057 0.1884 (  1988 PWs)   bands (ev):

    -9.4386  -9.0103   1.1520   1.6754   3.5861   5.4088

          k = 0.2942-0.3057 0.3140 (  1980 PWs)   bands (ev):

    -9.2959  -9.1383   0.9813   1.1873   4.0571   4.9622

          k = 0.2942-0.1699 0.0628 (  1993 PWs)   bands (ev):

    -9.6824  -8.8688   1.4795   1.9029   3.9323   5.5049

          k = 0.2942-0.1699 0.1884 (  1995 PWs)   bands (ev):

    -9.5740  -8.9765   1.0752   1.6891   4.2636   6.1139

          k = 0.2942-0.1699 0.3140 (  1986 PWs)   bands (ev):

    -9.3848  -9.1654   0.9716   1.2247   5.0047   6.0033

          k = 0.4119 0.7134 0.0628 (  1990 PWs)   bands (ev):

    -9.3759  -9.0305   1.3516   2.7453   3.0434   4.6302

          k = 0.4119 0.7134 0.1884 (  1991 PWs)   bands (ev):

    -9.3183  -9.0636   1.0609   1.9141   3.0074   5.5580

          k = 0.4119 0.7134 0.3140 (  1989 PWs)   bands (ev):

    -9.2256  -9.1317   0.9305   1.1981   3.6316   4.5963

          k = 0.4119-0.2378 0.0628 (  1988 PWs)   bands (ev):

    -9.4569  -8.9814   1.3181   2.4349   3.2890   4.7745

          k = 0.4119-0.2378 0.1884 (  1990 PWs)   bands (ev):

    -9.3843  -9.0339   0.9564   1.8196   3.4799   5.7518

          k = 0.4119-0.2378 0.3140 (  1992 PWs)   bands (ev):

    -9.2636  -9.1345   0.8383   1.1294   4.3105   5.3818

     the Fermi energy is    -1.1057 ev

!    total energy              =      -4.66294492 Ry
     Harris-Foulkes estimate   =      -4.66294492 Ry
     estimated scf accuracy    <          2.1E-11 Ry

     The total energy is the sum of the following terms:

     one-electron contribution =      -2.91406771 Ry
     hartree contribution      =       1.85295334 Ry
     xc contribution           =      -2.73797204 Ry
     ewald contribution        =      -0.86385851 Ry
     smearing contrib. (-TS)   =       0.00000000 Ry

     convergence has been achieved in   8 iterations

     Forces acting on atoms (cartesian axes, Ry/au):

     atom    1 type  1   force =     0.00000000    0.00000000   -0.00003580
     atom    2 type  1   force =     0.00000000    0.00000000    0.00003580
     atom    3 type  1   force =     0.00000000    0.00000000   -0.00003580
     atom    4 type  1   force =     0.00000000    0.00000000    0.00003580

     Total force =     0.000072     Total SCF correction =     0.000001


     Computing stress (Cartesian axis) and pressure

          total   stress  (Ry/bohr**3)                   (kbar)     P=    0.06
   0.00000021   0.00000000   0.00000000          0.03      0.00      0.00
   0.00000000   0.00000021   0.00000000          0.00      0.03      0.00
  -0.00000000   0.00000000   0.00000077         -0.00      0.00      0.11


     Writing output data file relax.save/
 
     init_run     :      0.28s CPU      0.33s WALL (       2 calls)
     electrons    :     37.93s CPU     46.09s WALL (      19 calls)
     update_pot   :      0.64s CPU      0.68s WALL (      17 calls)
     forces       :      0.37s CPU      0.41s WALL (      19 calls)
     stress       :      0.51s CPU      0.55s WALL (      19 calls)

     Called by init_run:
     wfcinit      :      0.20s CPU      0.23s WALL (       2 calls)
     potinit      :      0.03s CPU      0.03s WALL (       2 calls)
     hinit0       :      0.03s CPU      0.03s WALL (       2 calls)

     Called by electrons:
     c_bands      :     34.11s CPU     41.69s WALL (     126 calls)
     sum_band     :      3.24s CPU      3.66s WALL (     126 calls)
     v_of_rho     :      0.44s CPU      0.50s WALL (     137 calls)
     newd         :      0.04s CPU      0.05s WALL (     137 calls)
     mix_rho      :      0.06s CPU      0.07s WALL (     126 calls)

     Called by c_bands:
     init_us_2    :      0.31s CPU      0.35s WALL (   17520 calls)
     cegterg      :     33.50s CPU     40.96s WALL (    7560 calls)

     Called by sum_band:
     sum_band:bec :      0.03s CPU      0.04s WALL (    7560 calls)
     addusdens    :      0.02s CPU      0.03s WALL (     126 calls)

     Called by *egterg:
     h_psi        :     12.97s CPU     15.03s WALL (   21562 calls)
     s_psi        :      0.24s CPU      0.28s WALL (   21562 calls)
     g_psi        :      0.07s CPU      0.08s WALL (   13882 calls)
     cdiaghg      :     15.84s CPU     20.23s WALL (   19942 calls)

     Called by h_psi:
     h_psi:pot    :     12.87s CPU     14.91s WALL (   21562 calls)
     h_psi:calbec :      0.56s CPU      0.72s WALL (   21562 calls)
     vloc_psi     :     11.90s CPU     13.73s WALL (   21562 calls)
     add_vuspsi   :      0.27s CPU      0.31s WALL (   21562 calls)

     General routines
     calbec       :      0.75s CPU      0.95s WALL (   34822 calls)
     fft          :      0.30s CPU      0.35s WALL (    1939 calls)
     ffts         :      0.03s CPU      0.03s WALL (     263 calls)
     fftw         :     12.97s CPU     14.92s WALL (  263810 calls)
     interpolate  :      0.04s CPU      0.04s WALL (     137 calls)
 
     Parallel routines
     fft_scatt_xy :      1.90s CPU      2.13s WALL (  266012 calls)
     fft_scatt_yz :      5.04s CPU      6.04s WALL (  266012 calls)
 
     PWSCF        :    40.06s CPU        48.62s WALL

 
   This run was terminated on:  13:43:43  22Jul2019            

=------------------------------------------------------------------------------=
   JOB DONE.
=------------------------------------------------------------------------------=
