===== VARIABLES =====
EXE_PATH = /scr/szymansk/2019-3/qe-bin/bin/pw.x
tpp = 4
Parallel keywords = -nimage 1
MPIRUN_EXE = orterun
PATH = /scr/szymansk/2019-3/mmshare-v4.7/lib/Linux-x86_64/openmpi/bin:/scr/szymansk/2019-3/internal/bin:/scr/szymansk/2019-3/mmshare-v4.7/bin/Linux-x86_64:/home/szymansk/bin:/scr/szymansk/dakota/bin:/scr/szymansk/atompaw-4.1.0.5/src/:/usr/lib64/qt-3.3/bin:/usr/local/bin:/usr/local/sbin:/usr/bin:/usr/sbin:/bin:/sbin
LD_LIBRARY_PATH = /scr/szymansk/2019-3/mmshare-v4.7/lib/Linux-x86_64/openmpi/lib:/scr/szymansk/2019-3/internal/lib/ssl:/scr/szymansk/2019-3/internal/lib:/scr/szymansk/2019-3/mmshare-v4.7/lib/Linux-x86_64:/scr/szymansk/2019-3/internal/lib/python3.6/site-packages:/scr/szymansk/dakota/bin:/software/lib/Linux-x86_64/ifort_2017.1.132/mkl/lib/intel64
===== END VARIABLES =====
Invoking: exe_cmd () 
{ 
    "$MPIRUN_EXE" -np $tpp "$EXE_PATH" -in $input_file "${P_KEYWORDS[@]}"
}

     Program PWSCF v.6.3MaX starts on 14Jun2019 at 11:28:32 

     This program is part of the open-source Quantum ESPRESSO suite
     for quantum simulation of materials; please cite
         "P. Giannozzi et al., J. Phys.:Condens. Matter 21 395502 (2009);
         "P. Giannozzi et al., J. Phys.:Condens. Matter 29 465901 (2017);
          URL http://www.quantum-espresso.org", 
     in publications or presentations arising from this work. More details at
     http://www.quantum-espresso.org/quote

     Parallel version (MPI), running on     4 processors

     MPI processes distributed on     1 nodes
     R & G space division:  proc/nbgrp/npool/nimage =       4
     Reading input from Si.diamond.relax.in
Warning: card &CELL ignored
Warning: card   CELL_DYNAMICS='BFGS' ignored
Warning: card / ignored

     Current dimensions of program PWSCF are:
     Max number of different atomic species (ntypx) = 10
     Max number of k-points (npk) =  40000
     Max angular momentum in pseudopotentials (lmaxx) =  3

     Subspace diagonalization in iterative solution of the eigenvalue problem:
     a serial algorithm will be used

 
     Parallelization info
     --------------------
     sticks:   dense  smooth     PW     G-vecs:    dense   smooth      PW
     Min         183     145     46                 3234     2313     409
     Max         184     146     47                 3236     2316     411
     Sum         733     583    187                12939     9257    1639
 


     bravais-lattice index     =            0
     lattice parameter (alat)  =       7.2562  a.u.
     unit-cell volume          =     270.1494 (a.u.)^3
     number of atoms/cell      =            2
     number of atomic types    =            1
     number of electrons       =         8.00
     number of Kohn-Sham states=            8
     kinetic-energy cutoff     =      40.0000  Ry
     charge density cutoff     =     200.0000  Ry
     convergence threshold     =      1.0E-08
     mixing beta               =       0.7000
     number of iterations used =            8  plain     mixing
     Exchange-correlation      = SLA  PW   PBE  PBE ( 1  4  3  4 0 0)
     nstep                     =           50


     celldm(1)=   7.256151  celldm(2)=   0.000000  celldm(3)=   0.000000
     celldm(4)=   0.000000  celldm(5)=   0.000000  celldm(6)=   0.000000

     crystal axes: (cart. coord. in units of alat)
               a(1) = (  -0.707107   0.000000   0.707107 )  
               a(2) = (   0.000000   0.707107   0.707107 )  
               a(3) = (  -0.707107   0.707107   0.000000 )  

     reciprocal axes: (cart. coord. in units 2 pi/alat)
               b(1) = ( -0.707107 -0.707107  0.707107 )  
               b(2) = (  0.707107  0.707107  0.707107 )  
               b(3) = ( -0.707107  0.707107 -0.707107 )  


     PseudoPot. # 1 for Si read from file:
     ./Si.GGA-PBE-paw.UPF
     MD5 check sum: a056efeee980c13900f22a371efd63c1
     Pseudo is Ultrasoft + core correction, Zval =  4.0
     Generated by new atomic code, or converted to UPF format
     Using radial grid of  899 points,  6 beta functions with: 
                l(1) =   0
                l(2) =   0
                l(3) =   1
                l(4) =   1
                l(5) =   2
                l(6) =   2
     Q(r) pseudized with  8 coefficients,  rinner =    0.900   0.900   0.900
                                                       0.900   0.900

     atomic species   valence    mass     pseudopotential
        Si             4.00    28.08550     Si( 1.00)

     48 Sym. Ops., with inversion, found (24 have fractional translation)



   Cartesian axes

     site n.     atom                  positions (alat units)
         1           Si  tau(   1) = (   0.0000000   0.0000000   0.0000000  )
         2           Si  tau(   2) = (  -0.3535534   0.3535534   0.3535534  )

     number of k points=    72  Fermi-Dirac smearing, width (Ry)=  0.0020
                       cart. coord. in units 2pi/alat
        k(    1) = (   0.0000000   0.0000000   0.0000000), wk =   0.0011574
        k(    2) = (  -0.0589256   0.0589256  -0.0589256), wk =   0.0092593
        k(    3) = (  -0.1178511   0.1178511  -0.1178511), wk =   0.0092593
        k(    4) = (  -0.1767767   0.1767767  -0.1767767), wk =   0.0092593
        k(    5) = (  -0.2357023   0.2357023  -0.2357023), wk =   0.0092593
        k(    6) = (  -0.2946278   0.2946278  -0.2946278), wk =   0.0092593
        k(    7) = (   0.3535534  -0.3535534   0.3535534), wk =   0.0046296
        k(    8) = (   0.0000000   0.1178511   0.0000000), wk =   0.0069444
        k(    9) = (  -0.0589256   0.1767767  -0.0589256), wk =   0.0277778
        k(   10) = (  -0.1178511   0.2357023  -0.1178511), wk =   0.0277778
        k(   11) = (  -0.1767767   0.2946278  -0.1767767), wk =   0.0277778
        k(   12) = (  -0.2357023   0.3535534  -0.2357023), wk =   0.0277778
        k(   13) = (   0.4124790  -0.2946278   0.4124790), wk =   0.0277778
        k(   14) = (   0.3535534  -0.2357023   0.3535534), wk =   0.0277778
        k(   15) = (   0.2946278  -0.1767767   0.2946278), wk =   0.0277778
        k(   16) = (   0.2357023  -0.1178511   0.2357023), wk =   0.0277778
        k(   17) = (   0.1767767  -0.0589256   0.1767767), wk =   0.0277778
        k(   18) = (   0.1178511  -0.0000000   0.1178511), wk =   0.0138889
        k(   19) = (   0.0000000   0.2357023   0.0000000), wk =   0.0069444
        k(   20) = (  -0.0589256   0.2946278  -0.0589256), wk =   0.0277778
        k(   21) = (  -0.1178511   0.3535534  -0.1178511), wk =   0.0277778
        k(   22) = (  -0.1767767   0.4124790  -0.1767767), wk =   0.0277778
        k(   23) = (   0.4714045  -0.2357023   0.4714045), wk =   0.0277778
        k(   24) = (   0.4124790  -0.1767767   0.4124790), wk =   0.0277778
        k(   25) = (   0.3535534  -0.1178511   0.3535534), wk =   0.0277778
        k(   26) = (   0.2946278  -0.0589256   0.2946278), wk =   0.0277778
        k(   27) = (   0.2357023   0.0000000   0.2357023), wk =   0.0138889
        k(   28) = (   0.0000000   0.3535534   0.0000000), wk =   0.0069444
        k(   29) = (  -0.0589256   0.4124790  -0.0589256), wk =   0.0277778
        k(   30) = (  -0.1178511   0.4714045  -0.1178511), wk =   0.0277778
        k(   31) = (   0.5303301  -0.1767767   0.5303301), wk =   0.0277778
        k(   32) = (   0.4714045  -0.1178511   0.4714045), wk =   0.0277778
        k(   33) = (   0.4124790  -0.0589256   0.4124790), wk =   0.0277778
        k(   34) = (   0.3535534   0.0000000   0.3535534), wk =   0.0138889
        k(   35) = (   0.0000000   0.4714045   0.0000000), wk =   0.0069444
        k(   36) = (  -0.0589256   0.5303301  -0.0589256), wk =   0.0277778
        k(   37) = (   0.5892557  -0.1178511   0.5892557), wk =   0.0277778
        k(   38) = (   0.5303301  -0.0589256   0.5303301), wk =   0.0277778
        k(   39) = (   0.4714045  -0.0000000   0.4714045), wk =   0.0138889
        k(   40) = (   0.0000000   0.5892557   0.0000000), wk =   0.0069444
        k(   41) = (   0.6481812  -0.0589256   0.6481812), wk =   0.0277778
        k(   42) = (   0.5892557   0.0000000   0.5892557), wk =   0.0138889
        k(   43) = (   0.0000000  -0.7071068   0.0000000), wk =   0.0034722
        k(   44) = (  -0.1178511   0.2357023  -0.0000000), wk =   0.0277778
        k(   45) = (  -0.1767767   0.2946278  -0.0589256), wk =   0.0555556
        k(   46) = (  -0.2357023   0.3535534  -0.1178511), wk =   0.0555556
        k(   47) = (   0.4124790  -0.2946278   0.5303301), wk =   0.0555556
        k(   48) = (   0.3535534  -0.2357023   0.4714045), wk =   0.0277778
        k(   49) = (  -0.1178511   0.3535534   0.0000000), wk =   0.0277778
        k(   50) = (  -0.1767767   0.4124790  -0.0589256), wk =   0.0555556
        k(   51) = (   0.4714045  -0.2357023   0.5892557), wk =   0.0555556
        k(   52) = (   0.4124790  -0.1767767   0.5303301), wk =   0.0555556
        k(   53) = (   0.3535534  -0.1178511   0.4714045), wk =   0.0555556
        k(   54) = (   0.2946278  -0.0589256   0.4124790), wk =   0.0555556
        k(   55) = (   0.2357023   0.0000000   0.3535534), wk =   0.0277778
        k(   56) = (  -0.1178511   0.4714045   0.0000000), wk =   0.0277778
        k(   57) = (   0.5303301  -0.1767767   0.6481812), wk =   0.0555556
        k(   58) = (   0.4714045  -0.1178511   0.5892557), wk =   0.0555556
        k(   59) = (   0.4124790  -0.0589256   0.5303301), wk =   0.0555556
        k(   60) = (   0.3535534  -0.0000000   0.4714045), wk =   0.0277778
        k(   61) = (   0.5892557  -0.1178511   0.7071068), wk =   0.0277778
        k(   62) = (   0.5303301  -0.0589256   0.6481812), wk =   0.0555556
        k(   63) = (   0.4714045  -0.0000000   0.5892557), wk =   0.0277778
        k(   64) = (  -0.1178511  -0.7071068   0.0000000), wk =   0.0138889
        k(   65) = (   0.4714045  -0.2357023   0.7071068), wk =   0.0277778
        k(   66) = (   0.4124790  -0.1767767   0.6481812), wk =   0.0555556
        k(   67) = (   0.3535534  -0.1178511   0.5892557), wk =   0.0277778
        k(   68) = (   0.4714045  -0.1178511   0.7071068), wk =   0.0277778
        k(   69) = (   0.4124790  -0.0589256   0.6481812), wk =   0.0555556
        k(   70) = (   0.3535534   0.0000000   0.5892557), wk =   0.0277778
        k(   71) = (  -0.2357023  -0.7071068   0.0000000), wk =   0.0138889
        k(   72) = (  -0.3535534  -0.7071068   0.0000000), wk =   0.0069444

     Dense  grid:    12939 G-vectors     FFT dimensions: (  36,  36,  36)

     Smooth grid:     9257 G-vectors     FFT dimensions: (  30,  30,  30)

     Estimated max dynamical RAM per process >      15.59 MB

     Estimated total dynamical RAM >      62.36 MB

     Initial potential from superposition of free atoms

     starting charge    7.99866, renormalised to    8.00000
     Starting wfcs are    8 randomized atomic wfcs

     total cpu time spent up to now is        0.3 secs

     Self-consistent Calculation

     iteration #  1     ecut=    40.00 Ry     beta= 0.70
     Davidson diagonalization with overlap
     ethr =  1.00E-02,  avg # of iterations =  3.7

     Threshold (ethr) on eigenvalues was too large:
     Diagonalizing with lowered threshold

     Davidson diagonalization with overlap
     ethr =  7.15E-04,  avg # of iterations =  1.0

     total cpu time spent up to now is        1.3 secs

     total energy              =     -19.19058459 Ry
     Harris-Foulkes estimate   =     -19.20421668 Ry
     estimated scf accuracy    <       0.05627877 Ry

     iteration #  2     ecut=    40.00 Ry     beta= 0.70
     Davidson diagonalization with overlap
     ethr =  7.03E-04,  avg # of iterations =  1.0

     total cpu time spent up to now is        1.6 secs

     total energy              =     -19.19293315 Ry
     Harris-Foulkes estimate   =     -19.19303950 Ry
     estimated scf accuracy    <       0.00211805 Ry

     iteration #  3     ecut=    40.00 Ry     beta= 0.70
     Davidson diagonalization with overlap
     ethr =  2.65E-05,  avg # of iterations =  2.5

     total cpu time spent up to now is        2.1 secs

     total energy              =     -19.19306977 Ry
     Harris-Foulkes estimate   =     -19.19306228 Ry
     estimated scf accuracy    <       0.00004002 Ry

     iteration #  4     ecut=    40.00 Ry     beta= 0.70
     Davidson diagonalization with overlap
     ethr =  5.00E-07,  avg # of iterations =  3.0

     total cpu time spent up to now is        2.6 secs

     total energy              =     -19.19310719 Ry
     Harris-Foulkes estimate   =     -19.19310709 Ry
     estimated scf accuracy    <       0.00000010 Ry

     iteration #  5     ecut=    40.00 Ry     beta= 0.70
     Davidson diagonalization with overlap
     ethr =  1.21E-09,  avg # of iterations =  2.7

     total cpu time spent up to now is        3.2 secs

     End of self-consistent calculation

          k = 0.0000 0.0000 0.0000 (  1139 PWs)   bands (ev):

    -5.7659   6.1942   6.1942   6.1942   8.7612   8.7612   8.7612   9.5576

          k =-0.0589 0.0589-0.0589 (  1185 PWs)   bands (ev):

    -5.6749   5.3358   6.0505   6.0505   8.8050   8.9725   8.9725  10.2210

          k =-0.1179 0.1179-0.1179 (  1167 PWs)   bands (ev):

    -5.4048   3.8140   5.7439   5.7439   8.5478   9.4086   9.4086  11.6463

          k =-0.1768 0.1768-0.1768 (  1164 PWs)   bands (ev):

    -4.9663   2.2681   5.4345   5.4345   8.2256   9.7046   9.7046  13.1123

          k =-0.2357 0.2357-0.2357 (  1149 PWs)   bands (ev):

    -4.3894   0.8611   5.1936   5.1936   7.9599   9.7068   9.7068  14.0651

          k =-0.2946 0.2946-0.2946 (  1155 PWs)   bands (ev):

    -3.7691  -0.2686   5.0451   5.0451   7.7916   9.5951   9.5951  14.0095

          k = 0.3536-0.3536 0.3536 (  1158 PWs)   bands (ev):

    -3.4351  -0.7739   4.9952   4.9952   7.7345   9.5408   9.5408  13.9274

          k = 0.0000 0.1179 0.0000 (  1179 PWs)   bands (ev):

    -5.6444   5.5005   5.7645   5.7645   8.4872   9.3400   9.3400  10.1973

          k =-0.0589 0.1768-0.0589 (  1164 PWs)   bands (ev):

    -5.4335   4.2671   5.4007   5.5912   8.5093   9.4224   9.8784  11.0964

          k =-0.1179 0.2357-0.1179 (  1155 PWs)   bands (ev):

    -5.0496   2.7654   5.0875   5.2678   8.6355   9.4128  10.2645  11.6001

          k =-0.1768 0.2946-0.1768 (  1151 PWs)   bands (ev):

    -4.5137   1.3291   4.8774   4.9147   8.4916   9.4967  10.2888  12.1701

          k =-0.2357 0.3536-0.2357 (  1153 PWs)   bands (ev):

    -3.8883   0.0989   4.6183   4.7874   8.3261   9.4646  10.0942  13.2182

          k = 0.4125-0.2946 0.4125 (  1160 PWs)   bands (ev):

    -3.3977  -0.6708   4.4133   4.8182   8.2459   9.4664   9.8947  14.1198

          k = 0.3536-0.2357 0.3536 (  1156 PWs)   bands (ev):

    -3.5185  -0.4931   4.3179   4.9612   8.2730   9.5828   9.7837  14.2279

          k = 0.2946-0.1768 0.2946 (  1147 PWs)   bands (ev):

    -4.1002   0.4791   4.3452   5.2008   8.4060   9.7513   9.7918  13.6846

          k = 0.2357-0.1179 0.2357 (  1151 PWs)   bands (ev):

    -4.7080   1.7935   4.5051   5.5110   8.6318   9.6694   9.9436  12.7165

          k = 0.1768-0.0589 0.1768 (  1160 PWs)   bands (ev):

    -5.1967   3.2521   4.8092   5.8405   8.9142   9.3687   9.7295  11.9367

          k = 0.1179-0.0000 0.1179 (  1163 PWs)   bands (ev):

    -5.5240   4.6051   5.3313   6.0760   9.0108   9.1295   9.1657  11.0191

          k = 0.0000 0.2357 0.0000 (  1162 PWs)   bands (ev):

    -5.2819   4.1561   5.0018   5.0018   7.9033  10.4987  10.5426  10.5426

          k =-0.0589 0.2946-0.0589 (  1158 PWs)   bands (ev):

    -4.9547   3.0690   4.6547   4.6674   7.9231  10.0965  10.8808  11.1058

          k =-0.1179 0.3536-0.1179 (  1151 PWs)   bands (ev):

    -4.4667   1.7585   4.2023   4.4487   8.1639  10.2651  10.7232  11.2740

          k =-0.1768 0.4125-0.1768 (  1152 PWs)   bands (ev):

    -3.8590   0.5239   3.7631   4.3646   8.2098  10.4562  11.0945  11.2513

          k = 0.4714-0.2357 0.4714 (  1153 PWs)   bands (ev):

    -3.2757  -0.4102   3.4186   4.4182   8.2415  10.3138  10.8222  12.6205

          k = 0.4125-0.1768 0.4125 (  1157 PWs)   bands (ev):

    -3.1613  -0.5700   3.2047   4.6021   8.3861  10.2666  10.5958  14.1760

          k = 0.3536-0.1179 0.3536 (  1156 PWs)   bands (ev):

    -3.6605   0.1888   3.1482   4.8970   8.6509  10.3210  10.4296  13.4907

          k = 0.2946-0.0589 0.2946 (  1156 PWs)   bands (ev):

    -4.2847   1.3356   3.2928   5.2650   8.9823  10.2004  10.3759  12.3306

          k = 0.2357 0.0000 0.2357 (  1147 PWs)   bands (ev):

    -4.8166   2.4774   3.7833   5.6290   9.2381   9.7567  10.0453  11.8633

          k = 0.0000 0.3536 0.0000 (  1174 PWs)   bands (ev):

    -4.6841   2.6772   4.3050   4.3050   7.3293   9.3342  11.9543  11.9543

          k =-0.0589 0.4125-0.0589 (  1154 PWs)   bands (ev):

    -4.2476   1.7671   3.8399   4.0585   7.4132   8.9803  12.2429  12.4368

          k =-0.1179 0.4714-0.1179 (  1153 PWs)   bands (ev):

    -3.6723   0.7382   3.2082   3.9512   7.6319   9.4511  12.1094  12.3955

          k = 0.5303-0.1768 0.5303 (  1156 PWs)   bands (ev):

    -3.0484  -0.1879   2.6619   3.9898   7.7203  10.6482  11.9419  12.1188

          k = 0.4714-0.1179 0.4714 (  1151 PWs)   bands (ev):

    -2.7247  -0.6023   2.2990   4.1697   7.8997  11.6552  11.8219  12.3663

          k = 0.4125-0.0589 0.4125 (  1152 PWs)   bands (ev):

    -3.1006  -0.1084   2.1797   4.4744   8.2239  11.5213  11.6377  13.3802

          k = 0.3536 0.0000 0.3536 (  1159 PWs)   bands (ev):

    -3.7225   0.7144   2.4437   4.8665   8.6494  10.9878  11.3315  12.3433

          k = 0.0000 0.4714 0.0000 (  1150 PWs)   bands (ev):

    -3.8619   1.1834   3.7773   3.7773   6.9268   8.1934  13.4609  13.4609

          k =-0.0589 0.5303-0.0589 (  1152 PWs)   bands (ev):

    -3.3273   0.3975   3.2919   3.6347   7.0892   8.0628  13.7858  13.8312

          k = 0.5893-0.1179 0.5893 (  1149 PWs)   bands (ev):

    -2.6983  -0.3710   2.5643   3.6408   7.2637   8.9172  13.6495  13.6783

          k = 0.5303-0.0589 0.5303 (  1149 PWs)   bands (ev):

    -2.2295  -0.8621   1.9858   3.7944   7.4406  10.3636  13.2980  13.5109

          k = 0.4714-0.0000 0.4714 (  1141 PWs)   bands (ev):

    -2.5024  -0.5758   1.7840   4.0829   7.7676  12.0015  12.6750  13.2746

          k = 0.0000 0.5893 0.0000 (  1162 PWs)   bands (ev):

    -2.8326  -0.2676   3.4522   3.4522   6.7720   7.3771  15.0235  15.0235

          k = 0.6482-0.0589 0.6482 (  1150 PWs)   bands (ev):

    -2.2191  -0.9555   3.0210   3.4185   6.9734   7.5425  15.2695  15.3699

          k = 0.5893 0.0000 0.5893 (  1152 PWs)   bands (ev):

    -1.7634  -1.3595   2.3508   3.5356   7.1335   8.7429  14.7219  15.2537

          k = 0.0000-0.7071 0.0000 (  1162 PWs)   bands (ev):

    -1.6222  -1.6222   3.3427   3.3427   6.9106   6.9106  16.3042  16.3042

          k =-0.1179 0.2357-0.0000 (  1157 PWs)   bands (ev):

    -5.1648   3.4676   4.5613   5.4881   8.5362   9.7445  10.3540  11.1096

          k =-0.1768 0.2946-0.0589 (  1148 PWs)   bands (ev):

    -4.7285   2.2264   4.0292   5.2130   8.8174   9.7127  10.7615  11.0965

          k =-0.2357 0.3536-0.1179 (  1151 PWs)   bands (ev):

    -4.1533   0.9246   3.7598   4.8855   8.8588   9.5906  10.8199  11.7457

          k = 0.4125-0.2946 0.5303 (  1151 PWs)   bands (ev):

    -3.5317  -0.1652   3.6325   4.6389   8.8030   9.4016  10.7389  12.9608

          k = 0.3536-0.2357 0.4714 (  1152 PWs)   bands (ev):

    -3.1935  -0.6634   3.5970   4.5471   8.7816   9.3166  10.6937  14.2723

          k =-0.1179 0.3536 0.0000 (  1156 PWs)   bands (ev):

    -4.5736   2.2743   3.8658   4.5681   7.9891   9.7293  11.0168  11.8345

          k =-0.1768 0.4125-0.0589 (  1152 PWs)   bands (ev):

    -4.0411   1.2239   3.3288   4.2795   8.3224   9.9483  10.7604  12.2209

          k = 0.4714-0.2357 0.5893 (  1153 PWs)   bands (ev):

    -3.4157   0.1693   2.9724   4.0687   8.4441  10.4096  11.0104  12.2031

          k = 0.4125-0.1768 0.5303 (  1152 PWs)   bands (ev):

    -2.9190  -0.5372   2.7267   4.0505   8.5721  10.1359  12.0953  12.4788

          k = 0.3536-0.1179 0.4714 (  1152 PWs)   bands (ev):

    -3.0547  -0.3500   2.6084   4.2232   8.8216   9.9467  12.0118  12.8647

          k = 0.2946-0.0589 0.4125 (  1154 PWs)   bands (ev):

    -3.6448   0.5272   2.6824   4.5402   9.1804   9.8047  11.4917  11.9662

          k = 0.2357 0.0000 0.3536 (  1157 PWs)   bands (ev):

    -4.2473   1.5066   3.0974   4.9220   9.4112   9.5589  10.8738  11.5353

          k =-0.1179 0.4714 0.0000 (  1154 PWs)   bands (ev):

    -3.7633   1.0081   3.3561   3.7836   7.5919   8.6800  12.2615  13.4097

          k = 0.5303-0.1768 0.6482 (  1156 PWs)   bands (ev):

    -3.1577   0.1726   2.7686   3.5666   7.9266   9.2091  11.9612  13.7796

          k = 0.4714-0.1179 0.5893 (  1154 PWs)   bands (ev):

    -2.5685  -0.5422   2.2478   3.5746   8.0807  10.5024  11.6665  13.7128

          k = 0.4125-0.0589 0.5303 (  1157 PWs)   bands (ev):

    -2.4975  -0.6131   1.9591   3.7732   8.3374  11.2571  12.2521  12.9338

          k = 0.3536-0.0000 0.4714 (  1161 PWs)   bands (ev):

    -3.0351  -0.0226   2.0459   4.1183   8.7291  10.8437  11.7044  13.0386

          k = 0.5893-0.1179 0.7071 (  1159 PWs)   bands (ev):

    -2.7553  -0.3041   3.0723   3.2687   7.4216   7.9348  13.6385  15.0190

          k = 0.5303-0.0589 0.6482 (  1153 PWs)   bands (ev):

    -2.1263  -0.9471   2.4441   3.2248   7.7140   8.8406  13.3187  14.8019

          k = 0.4714-0.0000 0.5893 (  1151 PWs)   bands (ev):

    -1.9717  -1.0605   1.9463   3.4219   7.9515  10.3703  12.8585  13.2506

          k =-0.1179-0.7071 0.0000 (  1148 PWs)   bands (ev):

    -1.5841  -1.5841   3.0369   3.0369   7.5240   7.5240  15.1102  15.1102

          k = 0.4714-0.2357 0.7071 (  1151 PWs)   bands (ev):

    -3.4769   0.5506   2.6267   3.9006   9.0522   9.9157  10.4335  13.2639

          k = 0.4125-0.1768 0.6482 (  1152 PWs)   bands (ev):

    -2.8528  -0.2194   2.2798   3.5637   9.4269   9.9662  10.9547  13.6929

          k = 0.3536-0.1179 0.5893 (  1152 PWs)   bands (ev):

    -2.4924  -0.6486   2.1868   3.4342   9.5556   9.7567  12.3008  12.7180

          k = 0.4714-0.1179 0.7071 (  1155 PWs)   bands (ev):

    -2.5414  -0.4483   2.4280   3.0464   8.8818   9.2861  11.5827  14.5127

          k = 0.4125-0.0589 0.6482 (  1158 PWs)   bands (ev):

    -2.0183  -0.9549   2.1127   2.8922   9.2234  10.4865  11.3086  12.6949

          k = 0.3536 0.0000 0.5893 (  1153 PWs)   bands (ev):

    -2.2498  -0.7250   1.9878   3.1172   9.5249  10.6748  11.1991  12.4430

          k =-0.2357-0.7071 0.0000 (  1154 PWs)   bands (ev):

    -1.5025  -1.5025   2.5515   2.5515   8.9487   8.9487  12.9625  12.9625

          k =-0.3536-0.7071 0.0000 (  1144 PWs)   bands (ev):

    -1.4585  -1.4585   2.3439   2.3439  10.4697  10.4697  11.2010  11.2010

     the Fermi energy is     6.4745 ev

!    total energy              =     -19.19310728 Ry
     Harris-Foulkes estimate   =     -19.19310727 Ry
     estimated scf accuracy    <          4.4E-09 Ry

     The total energy is the sum of the following terms:

     one-electron contribution =       5.11060964 Ry
     hartree contribution      =       1.11559907 Ry
     xc contribution           =      -8.62124757 Ry
     ewald contribution        =     -16.79806842 Ry
     smearing contrib. (-TS)   =      -0.00000001 Ry

     convergence has been achieved in   5 iterations

     Forces acting on atoms (cartesian axes, Ry/au):

     atom    1 type  1   force =    -0.00000000   -0.00000000   -0.00000000
     atom    2 type  1   force =     0.00000000    0.00000000    0.00000000

     Total force =     0.000000     Total SCF correction =     0.000000

     BFGS Geometry Optimization

     bfgs converged in   1 scf cycles and   0 bfgs steps
     (criteria: energy <  1.0E-05 Ry, force <  1.0E-03 Ry/Bohr)

     End of BFGS Geometry Optimization

     Final energy   =     -19.1931072835 Ry
Begin final coordinates

ATOMIC_POSITIONS (crystal)
Si       0.000000000   0.000000000   0.000000000
Si       0.250000000   0.250000000   0.250000000
End final coordinates



     Writing output data file Si.diamond.relax.save/
 
     init_run     :      0.21s CPU      0.22s WALL (       1 calls)
     electrons    :      2.75s CPU      2.91s WALL (       1 calls)
     forces       :      0.06s CPU      0.06s WALL (       1 calls)

     Called by init_run:
     wfcinit      :      0.12s CPU      0.13s WALL (       1 calls)
     potinit      :      0.01s CPU      0.01s WALL (       1 calls)
     hinit0       :      0.06s CPU      0.06s WALL (       1 calls)

     Called by electrons:
     c_bands      :      2.27s CPU      2.39s WALL (       6 calls)
     sum_band     :      0.42s CPU      0.44s WALL (       6 calls)
     v_of_rho     :      0.03s CPU      0.03s WALL (       6 calls)
     newd         :      0.04s CPU      0.05s WALL (       6 calls)
     mix_rho      :      0.00s CPU      0.00s WALL (       6 calls)

     Called by c_bands:
     init_us_2    :      0.10s CPU      0.10s WALL (    1008 calls)
     cegterg      :      1.82s CPU      1.93s WALL (     432 calls)

     Called by sum_band:
     sum_band:bec :      0.00s CPU      0.00s WALL (     432 calls)
     addusdens    :      0.05s CPU      0.05s WALL (       6 calls)

     Called by *egterg:
     h_psi        :      1.55s CPU      1.64s WALL (    1507 calls)
     s_psi        :      0.05s CPU      0.06s WALL (    1507 calls)
     g_psi        :      0.01s CPU      0.01s WALL (    1003 calls)
     cdiaghg      :      0.17s CPU      0.18s WALL (    1363 calls)

     Called by h_psi:
     h_psi:pot    :      1.54s CPU      1.63s WALL (    1507 calls)
     h_psi:calbec :      0.08s CPU      0.08s WALL (    1507 calls)
     vloc_psi     :      1.40s CPU      1.48s WALL (    1507 calls)
     add_vuspsi   :      0.05s CPU      0.06s WALL (    1507 calls)

     General routines
     calbec       :      0.11s CPU      0.12s WALL (    2227 calls)
     fft          :      0.02s CPU      0.02s WALL (      89 calls)
     ffts         :      0.00s CPU      0.00s WALL (      12 calls)
     fftw         :      1.49s CPU      1.58s WALL (   22442 calls)
     interpolate  :      0.00s CPU      0.00s WALL (       6 calls)
 
     Parallel routines
     fft_scatt_xy :      0.23s CPU      0.25s WALL (   22543 calls)
     fft_scatt_yz :      0.51s CPU      0.54s WALL (   22543 calls)
 
     PWSCF        :     3.08s CPU         3.29s WALL

 
   This run was terminated on:  11:28:35  14Jun2019            

=------------------------------------------------------------------------------=
   JOB DONE.
=------------------------------------------------------------------------------=
