===== VARIABLES =====
EXE_PATH = /scr/szymansk/2019-3/qe-bin/bin/pw.x
tpp = 4
Parallel keywords = -nimage 1
MPIRUN_EXE = orterun
PATH = /scr/szymansk/2019-3/mmshare-v4.7/lib/Linux-x86_64/openmpi/bin:/scr/szymansk/2019-3/internal/bin:/scr/szymansk/2019-3/mmshare-v4.7/bin/Linux-x86_64:/home/szymansk/bin:/scr/szymansk/dakota/bin:/scr/szymansk/atompaw-4.1.0.5/src/:/usr/lib64/qt-3.3/bin:/usr/local/bin:/usr/local/sbin:/usr/bin:/usr/sbin:/bin:/sbin
LD_LIBRARY_PATH = /scr/szymansk/2019-3/mmshare-v4.7/lib/Linux-x86_64/openmpi/lib:/scr/szymansk/2019-3/internal/lib/ssl:/scr/szymansk/2019-3/internal/lib:/scr/szymansk/2019-3/mmshare-v4.7/lib/Linux-x86_64:/scr/szymansk/2019-3/internal/lib/python3.6/site-packages:/scr/szymansk/dakota/bin:/software/lib/Linux-x86_64/ifort_2017.1.132/mkl/lib/intel64
===== END VARIABLES =====
Invoking: exe_cmd () 
{ 
    "$MPIRUN_EXE" -np $tpp "$EXE_PATH" -in $input_file "${P_KEYWORDS[@]}"
}

     Program PWSCF v.6.3MaX starts on 14Jun2019 at 11:28:39 

     This program is part of the open-source Quantum ESPRESSO suite
     for quantum simulation of materials; please cite
         "P. Giannozzi et al., J. Phys.:Condens. Matter 21 395502 (2009);
         "P. Giannozzi et al., J. Phys.:Condens. Matter 29 465901 (2017);
          URL http://www.quantum-espresso.org", 
     in publications or presentations arising from this work. More details at
     http://www.quantum-espresso.org/quote

     Parallel version (MPI), running on     4 processors

     MPI processes distributed on     1 nodes
     R & G space division:  proc/nbgrp/npool/nimage =       4
     Reading input from Si.diamond.relax.in
Warning: card &CELL ignored
Warning: card   CELL_DYNAMICS='BFGS' ignored
Warning: card / ignored

     Current dimensions of program PWSCF are:
     Max number of different atomic species (ntypx) = 10
     Max number of k-points (npk) =  40000
     Max angular momentum in pseudopotentials (lmaxx) =  3

     Subspace diagonalization in iterative solution of the eigenvalue problem:
     a serial algorithm will be used

 
     Parallelization info
     --------------------
     sticks:   dense  smooth     PW     G-vecs:    dense   smooth      PW
     Min         186     145     46                 3330     2351     420
     Max         187     146     47                 3333     2354     423
     Sum         745     583    187                13323     9409    1687
 


     bravais-lattice index     =            0
     lattice parameter (alat)  =       7.3052  a.u.
     unit-cell volume          =     275.6626 (a.u.)^3
     number of atoms/cell      =            2
     number of atomic types    =            1
     number of electrons       =         8.00
     number of Kohn-Sham states=            8
     kinetic-energy cutoff     =      40.0000  Ry
     charge density cutoff     =     200.0000  Ry
     convergence threshold     =      1.0E-08
     mixing beta               =       0.7000
     number of iterations used =            8  plain     mixing
     Exchange-correlation      = SLA  PW   PBE  PBE ( 1  4  3  4 0 0)
     nstep                     =           50


     celldm(1)=   7.305181  celldm(2)=   0.000000  celldm(3)=   0.000000
     celldm(4)=   0.000000  celldm(5)=   0.000000  celldm(6)=   0.000000

     crystal axes: (cart. coord. in units of alat)
               a(1) = (  -0.707107   0.000000   0.707107 )  
               a(2) = (   0.000000   0.707107   0.707107 )  
               a(3) = (  -0.707107   0.707107   0.000000 )  

     reciprocal axes: (cart. coord. in units 2 pi/alat)
               b(1) = ( -0.707107 -0.707107  0.707107 )  
               b(2) = (  0.707107  0.707107  0.707107 )  
               b(3) = ( -0.707107  0.707107 -0.707107 )  


     PseudoPot. # 1 for Si read from file:
     ./Si.GGA-PBE-paw.UPF
     MD5 check sum: a056efeee980c13900f22a371efd63c1
     Pseudo is Ultrasoft + core correction, Zval =  4.0
     Generated by new atomic code, or converted to UPF format
     Using radial grid of  899 points,  6 beta functions with: 
                l(1) =   0
                l(2) =   0
                l(3) =   1
                l(4) =   1
                l(5) =   2
                l(6) =   2
     Q(r) pseudized with  8 coefficients,  rinner =    0.900   0.900   0.900
                                                       0.900   0.900

     atomic species   valence    mass     pseudopotential
        Si             4.00    28.08550     Si( 1.00)

     48 Sym. Ops., with inversion, found (24 have fractional translation)



   Cartesian axes

     site n.     atom                  positions (alat units)
         1           Si  tau(   1) = (   0.0000000   0.0000000   0.0000000  )
         2           Si  tau(   2) = (  -0.3535534   0.3535534   0.3535534  )

     number of k points=    72  Fermi-Dirac smearing, width (Ry)=  0.0020
                       cart. coord. in units 2pi/alat
        k(    1) = (   0.0000000   0.0000000   0.0000000), wk =   0.0011574
        k(    2) = (  -0.0589256   0.0589256  -0.0589256), wk =   0.0092593
        k(    3) = (  -0.1178511   0.1178511  -0.1178511), wk =   0.0092593
        k(    4) = (  -0.1767767   0.1767767  -0.1767767), wk =   0.0092593
        k(    5) = (  -0.2357023   0.2357023  -0.2357023), wk =   0.0092593
        k(    6) = (  -0.2946278   0.2946278  -0.2946278), wk =   0.0092593
        k(    7) = (   0.3535534  -0.3535534   0.3535534), wk =   0.0046296
        k(    8) = (   0.0000000   0.1178511   0.0000000), wk =   0.0069444
        k(    9) = (  -0.0589256   0.1767767  -0.0589256), wk =   0.0277778
        k(   10) = (  -0.1178511   0.2357023  -0.1178511), wk =   0.0277778
        k(   11) = (  -0.1767767   0.2946278  -0.1767767), wk =   0.0277778
        k(   12) = (  -0.2357023   0.3535534  -0.2357023), wk =   0.0277778
        k(   13) = (   0.4124790  -0.2946278   0.4124790), wk =   0.0277778
        k(   14) = (   0.3535534  -0.2357023   0.3535534), wk =   0.0277778
        k(   15) = (   0.2946278  -0.1767767   0.2946278), wk =   0.0277778
        k(   16) = (   0.2357023  -0.1178511   0.2357023), wk =   0.0277778
        k(   17) = (   0.1767767  -0.0589256   0.1767767), wk =   0.0277778
        k(   18) = (   0.1178511  -0.0000000   0.1178511), wk =   0.0138889
        k(   19) = (   0.0000000   0.2357023   0.0000000), wk =   0.0069444
        k(   20) = (  -0.0589256   0.2946278  -0.0589256), wk =   0.0277778
        k(   21) = (  -0.1178511   0.3535534  -0.1178511), wk =   0.0277778
        k(   22) = (  -0.1767767   0.4124790  -0.1767767), wk =   0.0277778
        k(   23) = (   0.4714045  -0.2357023   0.4714045), wk =   0.0277778
        k(   24) = (   0.4124790  -0.1767767   0.4124790), wk =   0.0277778
        k(   25) = (   0.3535534  -0.1178511   0.3535534), wk =   0.0277778
        k(   26) = (   0.2946278  -0.0589256   0.2946278), wk =   0.0277778
        k(   27) = (   0.2357023   0.0000000   0.2357023), wk =   0.0138889
        k(   28) = (   0.0000000   0.3535534   0.0000000), wk =   0.0069444
        k(   29) = (  -0.0589256   0.4124790  -0.0589256), wk =   0.0277778
        k(   30) = (  -0.1178511   0.4714045  -0.1178511), wk =   0.0277778
        k(   31) = (   0.5303301  -0.1767767   0.5303301), wk =   0.0277778
        k(   32) = (   0.4714045  -0.1178511   0.4714045), wk =   0.0277778
        k(   33) = (   0.4124790  -0.0589256   0.4124790), wk =   0.0277778
        k(   34) = (   0.3535534   0.0000000   0.3535534), wk =   0.0138889
        k(   35) = (   0.0000000   0.4714045   0.0000000), wk =   0.0069444
        k(   36) = (  -0.0589256   0.5303301  -0.0589256), wk =   0.0277778
        k(   37) = (   0.5892557  -0.1178511   0.5892557), wk =   0.0277778
        k(   38) = (   0.5303301  -0.0589256   0.5303301), wk =   0.0277778
        k(   39) = (   0.4714045  -0.0000000   0.4714045), wk =   0.0138889
        k(   40) = (   0.0000000   0.5892557   0.0000000), wk =   0.0069444
        k(   41) = (   0.6481812  -0.0589256   0.6481812), wk =   0.0277778
        k(   42) = (   0.5892557   0.0000000   0.5892557), wk =   0.0138889
        k(   43) = (   0.0000000  -0.7071068   0.0000000), wk =   0.0034722
        k(   44) = (  -0.1178511   0.2357023  -0.0000000), wk =   0.0277778
        k(   45) = (  -0.1767767   0.2946278  -0.0589256), wk =   0.0555556
        k(   46) = (  -0.2357023   0.3535534  -0.1178511), wk =   0.0555556
        k(   47) = (   0.4124790  -0.2946278   0.5303301), wk =   0.0555556
        k(   48) = (   0.3535534  -0.2357023   0.4714045), wk =   0.0277778
        k(   49) = (  -0.1178511   0.3535534   0.0000000), wk =   0.0277778
        k(   50) = (  -0.1767767   0.4124790  -0.0589256), wk =   0.0555556
        k(   51) = (   0.4714045  -0.2357023   0.5892557), wk =   0.0555556
        k(   52) = (   0.4124790  -0.1767767   0.5303301), wk =   0.0555556
        k(   53) = (   0.3535534  -0.1178511   0.4714045), wk =   0.0555556
        k(   54) = (   0.2946278  -0.0589256   0.4124790), wk =   0.0555556
        k(   55) = (   0.2357023   0.0000000   0.3535534), wk =   0.0277778
        k(   56) = (  -0.1178511   0.4714045   0.0000000), wk =   0.0277778
        k(   57) = (   0.5303301  -0.1767767   0.6481812), wk =   0.0555556
        k(   58) = (   0.4714045  -0.1178511   0.5892557), wk =   0.0555556
        k(   59) = (   0.4124790  -0.0589256   0.5303301), wk =   0.0555556
        k(   60) = (   0.3535534  -0.0000000   0.4714045), wk =   0.0277778
        k(   61) = (   0.5892557  -0.1178511   0.7071068), wk =   0.0277778
        k(   62) = (   0.5303301  -0.0589256   0.6481812), wk =   0.0555556
        k(   63) = (   0.4714045  -0.0000000   0.5892557), wk =   0.0277778
        k(   64) = (  -0.1178511  -0.7071068   0.0000000), wk =   0.0138889
        k(   65) = (   0.4714045  -0.2357023   0.7071068), wk =   0.0277778
        k(   66) = (   0.4124790  -0.1767767   0.6481812), wk =   0.0555556
        k(   67) = (   0.3535534  -0.1178511   0.5892557), wk =   0.0277778
        k(   68) = (   0.4714045  -0.1178511   0.7071068), wk =   0.0277778
        k(   69) = (   0.4124790  -0.0589256   0.6481812), wk =   0.0555556
        k(   70) = (   0.3535534   0.0000000   0.5892557), wk =   0.0277778
        k(   71) = (  -0.2357023  -0.7071068   0.0000000), wk =   0.0138889
        k(   72) = (  -0.3535534  -0.7071068   0.0000000), wk =   0.0069444

     Dense  grid:    13323 G-vectors     FFT dimensions: (  36,  36,  36)

     Smooth grid:     9409 G-vectors     FFT dimensions: (  30,  30,  30)

     Estimated max dynamical RAM per process >      15.97 MB

     Estimated total dynamical RAM >      63.87 MB

     Initial potential from superposition of free atoms

     starting charge    7.99866, renormalised to    8.00000
     Starting wfcs are    8 randomized atomic wfcs

     total cpu time spent up to now is        0.3 secs

     Self-consistent Calculation

     iteration #  1     ecut=    40.00 Ry     beta= 0.70
     Davidson diagonalization with overlap
     ethr =  1.00E-02,  avg # of iterations =  3.6

     Threshold (ethr) on eigenvalues was too large:
     Diagonalizing with lowered threshold

     Davidson diagonalization with overlap
     ethr =  6.92E-04,  avg # of iterations =  1.1

     total cpu time spent up to now is        1.1 secs

     total energy              =     -19.19110805 Ry
     Harris-Foulkes estimate   =     -19.20389622 Ry
     estimated scf accuracy    <       0.05448527 Ry

     iteration #  2     ecut=    40.00 Ry     beta= 0.70
     Davidson diagonalization with overlap
     ethr =  6.81E-04,  avg # of iterations =  1.0

     total cpu time spent up to now is        1.5 secs

     total energy              =     -19.19329390 Ry
     Harris-Foulkes estimate   =     -19.19340384 Ry
     estimated scf accuracy    <       0.00213662 Ry

     iteration #  3     ecut=    40.00 Ry     beta= 0.70
     Davidson diagonalization with overlap
     ethr =  2.67E-05,  avg # of iterations =  2.5

     total cpu time spent up to now is        1.8 secs

     total energy              =     -19.19343360 Ry
     Harris-Foulkes estimate   =     -19.19342669 Ry
     estimated scf accuracy    <       0.00003791 Ry

     iteration #  4     ecut=    40.00 Ry     beta= 0.70
     Davidson diagonalization with overlap
     ethr =  4.74E-07,  avg # of iterations =  3.0

     total cpu time spent up to now is        2.2 secs

     total energy              =     -19.19346812 Ry
     Harris-Foulkes estimate   =     -19.19346800 Ry
     estimated scf accuracy    <       0.00000009 Ry

     iteration #  5     ecut=    40.00 Ry     beta= 0.70
     Davidson diagonalization with overlap
     ethr =  1.16E-09,  avg # of iterations =  2.7

     total cpu time spent up to now is        2.6 secs

     End of self-consistent calculation

          k = 0.0000 0.0000 0.0000 (  1243 PWs)   bands (ev):

    -5.8370   5.9851   5.9851   5.9851   8.5436   8.5436   8.5436   9.1182

          k =-0.0589 0.0589-0.0589 (  1209 PWs)   bands (ev):

    -5.7475   5.1266   5.8446   5.8446   8.5510   8.7505   8.7505   9.8217

          k =-0.1179 0.1179-0.1179 (  1197 PWs)   bands (ev):

    -5.4821   3.6199   5.5435   5.5435   8.2726   9.1799   9.1799  11.2644

          k =-0.1768 0.1768-0.1768 (  1179 PWs)   bands (ev):

    -5.0517   2.0956   5.2385   5.2385   7.9465   9.4787   9.4787  12.7374

          k =-0.2357 0.2357-0.2357 (  1176 PWs)   bands (ev):

    -4.4862   0.7114   5.0006   5.0006   7.6800   9.4930   9.4930  13.7712

          k =-0.2946 0.2946-0.2946 (  1176 PWs)   bands (ev):

    -3.8806  -0.3964   4.8535   4.8535   7.5115   9.3908   9.3908  13.7675

          k = 0.3536-0.3536 0.3536 (  1170 PWs)   bands (ev):

    -3.5569  -0.8891   4.8042   4.8042   7.4543   9.3398   9.3398  13.6915

          k = 0.0000 0.1179 0.0000 (  1203 PWs)   bands (ev):

    -5.7176   5.2754   5.5661   5.5661   8.2746   9.1094   9.1094   9.7779

          k =-0.0589 0.1768-0.0589 (  1186 PWs)   bands (ev):

    -5.5103   4.0605   5.2093   5.3878   8.2932   9.1481   9.6385  10.7513

          k =-0.1179 0.2357-0.1179 (  1182 PWs)   bands (ev):

    -5.1333   2.5813   4.9008   5.0681   8.3919   9.1547  10.0241  11.3493

          k =-0.1768 0.2946-0.1768 (  1182 PWs)   bands (ev):

    -4.6077   1.1685   4.6930   4.7197   8.2285   9.2681  10.0600  11.9271

          k =-0.2357 0.3536-0.2357 (  1176 PWs)   bands (ev):

    -3.9960  -0.0389   4.4281   4.6031   8.0572   9.2528   9.8780  12.9568

          k = 0.4125-0.2946 0.4125 (  1178 PWs)   bands (ev):

    -3.5192  -0.7905   4.2272   4.6319   7.9736   9.2613   9.6860  13.8577

          k = 0.3536-0.2357 0.3536 (  1179 PWs)   bands (ev):

    -3.6362  -0.6175   4.1350   4.7715   7.9974   9.3774   9.5766  13.9655

          k = 0.2946-0.1768 0.2946 (  1179 PWs)   bands (ev):

    -4.2029   0.3339   4.1642   5.0065   8.1280   9.5391   9.5792  13.3933

          k = 0.2357-0.1179 0.2357 (  1178 PWs)   bands (ev):

    -4.7982   1.6249   4.3243   5.3113   8.3527   9.4472   9.7170  12.4159

          k = 0.1768-0.0589 0.1768 (  1185 PWs)   bands (ev):

    -5.2778   3.0598   4.6270   5.6353   8.6369   9.1431   9.4896  11.6035

          k = 0.1179-0.0000 0.1179 (  1193 PWs)   bands (ev):

    -5.5993   4.3947   5.1431   5.8673   8.7896   8.8513   8.9359  10.6460

          k = 0.0000 0.2357 0.0000 (  1187 PWs)   bands (ev):

    -5.3613   3.9296   4.8185   4.8185   7.7016  10.1990  10.2901  10.2902

          k =-0.0589 0.2946-0.0589 (  1183 PWs)   bands (ev):

    -5.0399   2.8634   4.4708   4.4896   7.7204   9.8346  10.6387  10.8470

          k =-0.1179 0.3536-0.1179 (  1176 PWs)   bands (ev):

    -4.5610   1.5788   4.0224   4.2738   7.9569   9.9953  10.4928  11.0235

          k =-0.1768 0.4125-0.1768 (  1179 PWs)   bands (ev):

    -3.9657   0.3688   3.5893   4.1900   8.0012  10.1807  10.8579  11.0148

          k = 0.4714-0.2357 0.4714 (  1177 PWs)   bands (ev):

    -3.3972  -0.5438   3.2508   4.2415   8.0286  10.0509  10.5954  12.3556

          k = 0.4125-0.1768 0.4125 (  1172 PWs)   bands (ev):

    -3.2866  -0.6989   3.0423   4.4210   8.1639  10.0108  10.3731  13.8872

          k = 0.3536-0.1179 0.3536 (  1174 PWs)   bands (ev):

    -3.7722   0.0413   2.9903   4.7097   8.4145  10.0724  10.2040  13.1840

          k = 0.2946-0.0589 0.2946 (  1176 PWs)   bands (ev):

    -4.3829   1.1638   3.1382   5.0703   8.7287   9.9671  10.1316  12.0333

          k = 0.2357 0.0000 0.2357 (  1175 PWs)   bands (ev):

    -4.9046   2.2853   3.6253   5.4271   8.9660   9.5247   9.8009  11.5713

          k = 0.0000 0.3536 0.0000 (  1174 PWs)   bands (ev):

    -4.7739   2.4643   4.1337   4.1337   7.1390   9.1262  11.6792  11.6792

          k =-0.0589 0.4125-0.0589 (  1177 PWs)   bands (ev):

    -4.3452   1.5697   3.6767   3.8910   7.2222   8.7820  11.9521  12.1609

          k =-0.1179 0.4714-0.1179 (  1182 PWs)   bands (ev):

    -3.7812   0.5616   3.0561   3.7849   7.4422   9.2409  11.8095  12.1334

          k = 0.5303-0.1768 0.5303 (  1172 PWs)   bands (ev):

    -3.1715  -0.3430   2.5190   3.8220   7.5308  10.4229  11.6353  11.8683

          k = 0.4714-0.1179 0.4714 (  1168 PWs)   bands (ev):

    -2.8579  -0.7452   2.1635   3.9980   7.7048  11.3983  11.5761  12.0732

          k = 0.4125-0.0589 0.4125 (  1175 PWs)   bands (ev):

    -3.2238  -0.2644   2.0500   4.2964   8.0184  11.2718  11.3676  13.0701

          k = 0.3536 0.0000 0.3536 (  1171 PWs)   bands (ev):

    -3.8318   0.5418   2.3121   4.6804   8.4267  10.7372  11.0750  12.0289

          k = 0.0000 0.4714 0.0000 (  1174 PWs)   bands (ev):

    -3.9662   0.9915   3.6146   3.6146   6.7462   8.0117  13.1630  13.1630

          k =-0.0589 0.5303-0.0589 (  1177 PWs)   bands (ev):

    -3.4414   0.2182   3.1412   3.4740   6.9083   7.8789  13.4715  13.5378

          k = 0.5893-0.1179 0.5893 (  1185 PWs)   bands (ev):

    -2.8255  -0.5368   2.4318   3.4796   7.0850   8.7121  13.3566  13.3694

          k = 0.5303-0.0589 0.5303 (  1172 PWs)   bands (ev):

    -2.3701  -1.0157   1.8675   3.6301   7.2585  10.1380  13.0211  13.1903

          k = 0.4714-0.0000 0.4714 (  1182 PWs)   bands (ev):

    -2.6385  -0.7330   1.6702   3.9129   7.5769  11.7703  12.3967  12.9605

          k = 0.0000 0.5893 0.0000 (  1190 PWs)   bands (ev):

    -2.9552  -0.4356   3.2946   3.2946   6.5985   7.2053  14.6991  14.6991

          k = 0.6482-0.0589 0.6482 (  1176 PWs)   bands (ev):

    -2.3533  -1.1121   2.8757   3.2613   6.8005   7.3606  14.9471  15.0273

          k = 0.5893 0.0000 0.5893 (  1164 PWs)   bands (ev):

    -1.9105  -1.5070   2.2244   3.3761   6.9585   8.5387  14.4019  14.8814

          k = 0.0000-0.7071 0.0000 (  1162 PWs)   bands (ev):

    -1.7664  -1.7664   3.1868   3.1868   6.7405   6.7405  15.9226  15.9226

          k =-0.1179 0.2357-0.0000 (  1187 PWs)   bands (ev):

    -5.2464   3.2622   4.3880   5.2877   8.3220   9.4545  10.1055  10.8606

          k =-0.1768 0.2946-0.0589 (  1184 PWs)   bands (ev):

    -4.8180   2.0417   3.8608   5.0183   8.5914   9.4376  10.5122  10.8735

          k =-0.2357 0.3536-0.1179 (  1176 PWs)   bands (ev):

    -4.2542   0.7649   3.5902   4.6983   8.6134   9.3580  10.5736  11.5069

          k = 0.4125-0.2946 0.5303 (  1174 PWs)   bands (ev):

    -3.6471  -0.3021   3.4611   4.4579   8.5447   9.1964  10.4989  12.6974

          k = 0.3536-0.2357 0.4714 (  1184 PWs)   bands (ev):

    -3.3190  -0.7874   3.4246   4.3686   8.5174   9.1216  10.4557  13.9803

          k =-0.1179 0.3536 0.0000 (  1183 PWs)   bands (ev):

    -4.6657   2.0745   3.7049   4.3880   7.7858   9.5045  10.7556  11.5625

          k =-0.1768 0.4125-0.0589 (  1179 PWs)   bands (ev):

    -4.1433   1.0433   3.1742   4.1072   8.1156   9.7264  10.4985  11.9475

          k = 0.4714-0.2357 0.5893 (  1177 PWs)   bands (ev):

    -3.5313   0.0122   2.8191   3.9022   8.2371  10.1691  10.7579  11.9332

          k = 0.4125-0.1768 0.5303 (  1180 PWs)   bands (ev):

    -3.0481  -0.6757   2.5764   3.8846   8.3611   9.8977  11.8274  12.2109

          k = 0.3536-0.1179 0.4714 (  1175 PWs)   bands (ev):

    -3.1800  -0.4935   2.4625   4.0529   8.6014   9.7152  11.7383  12.6057

          k = 0.2946-0.0589 0.4125 (  1171 PWs)   bands (ev):

    -3.7557   0.3620   2.5406   4.3623   8.9448   9.5782  11.2319  11.7105

          k = 0.2357 0.0000 0.3536 (  1174 PWs)   bands (ev):

    -4.3459   1.3227   2.9523   4.7349   9.1842   9.3017  10.6452  11.2710

          k =-0.1179 0.4714 0.0000 (  1179 PWs)   bands (ev):

    -3.8699   0.8202   3.2041   3.6229   7.3980   8.4873  11.9774  13.1135

          k = 0.5303-0.1768 0.6482 (  1183 PWs)   bands (ev):

    -3.2763  -0.0009   2.6292   3.4115   7.7320   9.0022  11.6837  13.4785

          k = 0.4714-0.1179 0.5893 (  1171 PWs)   bands (ev):

    -2.7014  -0.6993   2.1194   3.4188   7.8851  10.2793  11.3916  13.4068

          k = 0.4125-0.0589 0.5303 (  1172 PWs)   bands (ev):

    -2.6339  -0.7670   1.8382   3.6128   8.1357  11.0149  11.9891  12.6431

          k = 0.3536-0.0000 0.4714 (  1178 PWs)   bands (ev):

    -3.1588  -0.1882   1.9240   3.9503   8.5164  10.5999  11.4448  12.7661

          k = 0.5893-0.1179 0.7071 (  1183 PWs)   bands (ev):

    -2.8801  -0.4726   2.9256   3.1191   7.2346   7.7505  13.3392  14.6924

          k = 0.5303-0.0589 0.6482 (  1175 PWs)   bands (ev):

    -2.2646  -1.1050   2.3153   3.0758   7.5263   8.6354  13.0270  14.4747

          k = 0.4714-0.0000 0.5893 (  1171 PWs)   bands (ev):

    -2.1177  -1.2133   1.8306   3.2688   7.7590  10.1453  12.5725  12.9625

          k =-0.1179-0.7071 0.0000 (  1170 PWs)   bands (ev):

    -1.7302  -1.7302   2.8913   2.8913   7.3406   7.3406  14.7851  14.7851

          k = 0.4714-0.2357 0.7071 (  1173 PWs)   bands (ev):

    -3.5901   0.3733   2.4912   3.7389   8.8340   9.7108  10.1668  12.9739

          k = 0.4125-0.1768 0.6482 (  1179 PWs)   bands (ev):

    -2.9798  -0.3818   2.1495   3.4108   9.2108   9.7357  10.7015  13.4003

          k = 0.3536-0.1179 0.5893 (  1176 PWs)   bands (ev):

    -2.6293  -0.7995   2.0565   3.2848   9.3556   9.5072  12.0490  12.4287

          k = 0.4714-0.1179 0.7071 (  1187 PWs)   bands (ev):

    -2.6726  -0.6154   2.2980   2.9061   8.6703   9.0798  11.3130  14.1994

          k = 0.4125-0.0589 0.6482 (  1177 PWs)   bands (ev):

    -2.1621  -1.1127   1.9920   2.7551   9.0116  10.2687  11.0360  12.4154

          k = 0.3536 0.0000 0.5893 (  1180 PWs)   bands (ev):

    -2.3895  -0.8857   1.8699   2.9747   9.3100  10.4427  10.9400  12.1665

          k =-0.2357-0.7071 0.0000 (  1182 PWs)   bands (ev):

    -1.6530  -1.6530   2.4211   2.4211   8.7412   8.7412  12.6784  12.6784

          k =-0.3536-0.7071 0.0000 (  1176 PWs)   bands (ev):

    -1.6116  -1.6116   2.2199   2.2199  10.2620  10.2620  10.9204  10.9204

     the Fermi energy is     6.2833 ev

!    total energy              =     -19.19346821 Ry
     Harris-Foulkes estimate   =     -19.19346820 Ry
     estimated scf accuracy    <          4.7E-09 Ry

     The total energy is the sum of the following terms:

     one-electron contribution =       4.95583231 Ry
     hartree contribution      =       1.13333831 Ry
     xc contribution           =      -8.59731253 Ry
     ewald contribution        =     -16.68532630 Ry
     smearing contrib. (-TS)   =      -0.00000000 Ry

     convergence has been achieved in   5 iterations

     Forces acting on atoms (cartesian axes, Ry/au):

     atom    1 type  1   force =     0.00000000    0.00000000   -0.00000000
     atom    2 type  1   force =     0.00000000    0.00000000    0.00000000

     Total force =     0.000000     Total SCF correction =     0.000000

     BFGS Geometry Optimization

     bfgs converged in   1 scf cycles and   0 bfgs steps
     (criteria: energy <  1.0E-05 Ry, force <  1.0E-03 Ry/Bohr)

     End of BFGS Geometry Optimization

     Final energy   =     -19.1934682125 Ry
Begin final coordinates

ATOMIC_POSITIONS (crystal)
Si       0.000000000   0.000000000   0.000000000
Si       0.250000000   0.250000000   0.250000000
End final coordinates



     Writing output data file Si.diamond.relax.save/
 
     init_run     :      0.21s CPU      0.23s WALL (       1 calls)
     electrons    :      2.21s CPU      2.34s WALL (       1 calls)
     forces       :      0.05s CPU      0.05s WALL (       1 calls)

     Called by init_run:
     wfcinit      :      0.13s CPU      0.13s WALL (       1 calls)
     potinit      :      0.01s CPU      0.01s WALL (       1 calls)
     hinit0       :      0.06s CPU      0.06s WALL (       1 calls)

     Called by electrons:
     c_bands      :      1.85s CPU      1.95s WALL (       6 calls)
     sum_band     :      0.31s CPU      0.33s WALL (       6 calls)
     v_of_rho     :      0.03s CPU      0.03s WALL (       6 calls)
     newd         :      0.03s CPU      0.04s WALL (       6 calls)
     mix_rho      :      0.00s CPU      0.00s WALL (       6 calls)

     Called by c_bands:
     init_us_2    :      0.07s CPU      0.08s WALL (    1008 calls)
     cegterg      :      1.53s CPU      1.62s WALL (     432 calls)

     Called by sum_band:
     sum_band:bec :      0.00s CPU      0.00s WALL (     432 calls)
     addusdens    :      0.04s CPU      0.04s WALL (       6 calls)

     Called by *egterg:
     h_psi        :      1.31s CPU      1.39s WALL (    1507 calls)
     s_psi        :      0.04s CPU      0.04s WALL (    1507 calls)
     g_psi        :      0.01s CPU      0.01s WALL (    1003 calls)
     cdiaghg      :      0.15s CPU      0.15s WALL (    1363 calls)

     Called by h_psi:
     h_psi:pot    :      1.30s CPU      1.38s WALL (    1507 calls)
     h_psi:calbec :      0.07s CPU      0.07s WALL (    1507 calls)
     vloc_psi     :      1.19s CPU      1.26s WALL (    1507 calls)
     add_vuspsi   :      0.04s CPU      0.04s WALL (    1507 calls)

     General routines
     calbec       :      0.10s CPU      0.10s WALL (    2227 calls)
     fft          :      0.02s CPU      0.02s WALL (      89 calls)
     ffts         :      0.00s CPU      0.00s WALL (      12 calls)
     fftw         :      1.27s CPU      1.35s WALL (   22408 calls)
     interpolate  :      0.00s CPU      0.00s WALL (       6 calls)
 
     Parallel routines
     fft_scatt_xy :      0.17s CPU      0.18s WALL (   22509 calls)
     fft_scatt_yz :      0.59s CPU      0.62s WALL (   22509 calls)
 
     PWSCF        :     2.54s CPU         2.77s WALL

 
   This run was terminated on:  11:28:41  14Jun2019            

=------------------------------------------------------------------------------=
   JOB DONE.
=------------------------------------------------------------------------------=
