===== VARIABLES =====
EXE_PATH = /scr/szymansk/2019-3/qe-bin/bin/pw.x
tpp = 4
Parallel keywords = -nimage 1
MPIRUN_EXE = orterun
PATH = /scr/szymansk/2019-3/mmshare-v4.7/lib/Linux-x86_64/openmpi/bin:/scr/szymansk/2019-3/internal/bin:/scr/szymansk/2019-3/mmshare-v4.7/bin/Linux-x86_64:/home/szymansk/bin:/scr/szymansk/dakota/bin:/scr/szymansk/atompaw-4.1.0.5/src/:/usr/lib64/qt-3.3/bin:/usr/local/bin:/usr/local/sbin:/usr/bin:/usr/sbin:/bin:/sbin
LD_LIBRARY_PATH = /scr/szymansk/2019-3/mmshare-v4.7/lib/Linux-x86_64/openmpi/lib:/scr/szymansk/2019-3/internal/lib/ssl:/scr/szymansk/2019-3/internal/lib:/scr/szymansk/2019-3/mmshare-v4.7/lib/Linux-x86_64:/scr/szymansk/2019-3/internal/lib/python3.6/site-packages:/scr/szymansk/dakota/bin:/software/lib/Linux-x86_64/ifort_2017.1.132/mkl/lib/intel64
===== END VARIABLES =====
Invoking: exe_cmd () 
{ 
    "$MPIRUN_EXE" -np $tpp "$EXE_PATH" -in $input_file "${P_KEYWORDS[@]}"
}

     Program PWSCF v.6.3MaX starts on 14Jun2019 at 11:28:26 

     This program is part of the open-source Quantum ESPRESSO suite
     for quantum simulation of materials; please cite
         "P. Giannozzi et al., J. Phys.:Condens. Matter 21 395502 (2009);
         "P. Giannozzi et al., J. Phys.:Condens. Matter 29 465901 (2017);
          URL http://www.quantum-espresso.org", 
     in publications or presentations arising from this work. More details at
     http://www.quantum-espresso.org/quote

     Parallel version (MPI), running on     4 processors

     MPI processes distributed on     1 nodes
     R & G space division:  proc/nbgrp/npool/nimage =       4
     Reading input from Si.diamond.relax.in
Warning: card &CELL ignored
Warning: card   CELL_DYNAMICS='BFGS' ignored
Warning: card / ignored

     Current dimensions of program PWSCF are:
     Max number of different atomic species (ntypx) = 10
     Max number of k-points (npk) =  40000
     Max angular momentum in pseudopotentials (lmaxx) =  3

     Subspace diagonalization in iterative solution of the eigenvalue problem:
     a serial algorithm will be used

 
     Parallelization info
     --------------------
     sticks:   dense  smooth     PW     G-vecs:    dense   smooth      PW
     Min         179     145     46                 3156     2295     409
     Max         181     146     47                 3157     2297     411
     Sum         721     583    187                12627     9185    1639
 


     bravais-lattice index     =            0
     lattice parameter (alat)  =       7.2065  a.u.
     unit-cell volume          =     264.6361 (a.u.)^3
     number of atoms/cell      =            2
     number of atomic types    =            1
     number of electrons       =         8.00
     number of Kohn-Sham states=            8
     kinetic-energy cutoff     =      40.0000  Ry
     charge density cutoff     =     200.0000  Ry
     convergence threshold     =      1.0E-08
     mixing beta               =       0.7000
     number of iterations used =            8  plain     mixing
     Exchange-correlation      = SLA  PW   PBE  PBE ( 1  4  3  4 0 0)
     nstep                     =           50


     celldm(1)=   7.206450  celldm(2)=   0.000000  celldm(3)=   0.000000
     celldm(4)=   0.000000  celldm(5)=   0.000000  celldm(6)=   0.000000

     crystal axes: (cart. coord. in units of alat)
               a(1) = (  -0.707107   0.000000   0.707107 )  
               a(2) = (   0.000000   0.707107   0.707107 )  
               a(3) = (  -0.707107   0.707107   0.000000 )  

     reciprocal axes: (cart. coord. in units 2 pi/alat)
               b(1) = ( -0.707107 -0.707107  0.707107 )  
               b(2) = (  0.707107  0.707107  0.707107 )  
               b(3) = ( -0.707107  0.707107 -0.707107 )  


     PseudoPot. # 1 for Si read from file:
     ./Si.GGA-PBE-paw.UPF
     MD5 check sum: a056efeee980c13900f22a371efd63c1
     Pseudo is Ultrasoft + core correction, Zval =  4.0
     Generated by new atomic code, or converted to UPF format
     Using radial grid of  899 points,  6 beta functions with: 
                l(1) =   0
                l(2) =   0
                l(3) =   1
                l(4) =   1
                l(5) =   2
                l(6) =   2
     Q(r) pseudized with  8 coefficients,  rinner =    0.900   0.900   0.900
                                                       0.900   0.900

     atomic species   valence    mass     pseudopotential
        Si             4.00    28.08550     Si( 1.00)

     48 Sym. Ops., with inversion, found (24 have fractional translation)



   Cartesian axes

     site n.     atom                  positions (alat units)
         1           Si  tau(   1) = (   0.0000000   0.0000000   0.0000000  )
         2           Si  tau(   2) = (  -0.3535534   0.3535534   0.3535534  )

     number of k points=    72  Fermi-Dirac smearing, width (Ry)=  0.0020
                       cart. coord. in units 2pi/alat
        k(    1) = (   0.0000000   0.0000000   0.0000000), wk =   0.0011574
        k(    2) = (  -0.0589256   0.0589256  -0.0589256), wk =   0.0092593
        k(    3) = (  -0.1178511   0.1178511  -0.1178511), wk =   0.0092593
        k(    4) = (  -0.1767767   0.1767767  -0.1767767), wk =   0.0092593
        k(    5) = (  -0.2357023   0.2357023  -0.2357023), wk =   0.0092593
        k(    6) = (  -0.2946278   0.2946278  -0.2946278), wk =   0.0092593
        k(    7) = (   0.3535534  -0.3535534   0.3535534), wk =   0.0046296
        k(    8) = (   0.0000000   0.1178511   0.0000000), wk =   0.0069444
        k(    9) = (  -0.0589256   0.1767767  -0.0589256), wk =   0.0277778
        k(   10) = (  -0.1178511   0.2357023  -0.1178511), wk =   0.0277778
        k(   11) = (  -0.1767767   0.2946278  -0.1767767), wk =   0.0277778
        k(   12) = (  -0.2357023   0.3535534  -0.2357023), wk =   0.0277778
        k(   13) = (   0.4124790  -0.2946278   0.4124790), wk =   0.0277778
        k(   14) = (   0.3535534  -0.2357023   0.3535534), wk =   0.0277778
        k(   15) = (   0.2946278  -0.1767767   0.2946278), wk =   0.0277778
        k(   16) = (   0.2357023  -0.1178511   0.2357023), wk =   0.0277778
        k(   17) = (   0.1767767  -0.0589256   0.1767767), wk =   0.0277778
        k(   18) = (   0.1178511  -0.0000000   0.1178511), wk =   0.0138889
        k(   19) = (   0.0000000   0.2357023   0.0000000), wk =   0.0069444
        k(   20) = (  -0.0589256   0.2946278  -0.0589256), wk =   0.0277778
        k(   21) = (  -0.1178511   0.3535534  -0.1178511), wk =   0.0277778
        k(   22) = (  -0.1767767   0.4124790  -0.1767767), wk =   0.0277778
        k(   23) = (   0.4714045  -0.2357023   0.4714045), wk =   0.0277778
        k(   24) = (   0.4124790  -0.1767767   0.4124790), wk =   0.0277778
        k(   25) = (   0.3535534  -0.1178511   0.3535534), wk =   0.0277778
        k(   26) = (   0.2946278  -0.0589256   0.2946278), wk =   0.0277778
        k(   27) = (   0.2357023   0.0000000   0.2357023), wk =   0.0138889
        k(   28) = (   0.0000000   0.3535534   0.0000000), wk =   0.0069444
        k(   29) = (  -0.0589256   0.4124790  -0.0589256), wk =   0.0277778
        k(   30) = (  -0.1178511   0.4714045  -0.1178511), wk =   0.0277778
        k(   31) = (   0.5303301  -0.1767767   0.5303301), wk =   0.0277778
        k(   32) = (   0.4714045  -0.1178511   0.4714045), wk =   0.0277778
        k(   33) = (   0.4124790  -0.0589256   0.4124790), wk =   0.0277778
        k(   34) = (   0.3535534   0.0000000   0.3535534), wk =   0.0138889
        k(   35) = (   0.0000000   0.4714045   0.0000000), wk =   0.0069444
        k(   36) = (  -0.0589256   0.5303301  -0.0589256), wk =   0.0277778
        k(   37) = (   0.5892557  -0.1178511   0.5892557), wk =   0.0277778
        k(   38) = (   0.5303301  -0.0589256   0.5303301), wk =   0.0277778
        k(   39) = (   0.4714045  -0.0000000   0.4714045), wk =   0.0138889
        k(   40) = (   0.0000000   0.5892557   0.0000000), wk =   0.0069444
        k(   41) = (   0.6481812  -0.0589256   0.6481812), wk =   0.0277778
        k(   42) = (   0.5892557   0.0000000   0.5892557), wk =   0.0138889
        k(   43) = (   0.0000000  -0.7071068   0.0000000), wk =   0.0034722
        k(   44) = (  -0.1178511   0.2357023  -0.0000000), wk =   0.0277778
        k(   45) = (  -0.1767767   0.2946278  -0.0589256), wk =   0.0555556
        k(   46) = (  -0.2357023   0.3535534  -0.1178511), wk =   0.0555556
        k(   47) = (   0.4124790  -0.2946278   0.5303301), wk =   0.0555556
        k(   48) = (   0.3535534  -0.2357023   0.4714045), wk =   0.0277778
        k(   49) = (  -0.1178511   0.3535534   0.0000000), wk =   0.0277778
        k(   50) = (  -0.1767767   0.4124790  -0.0589256), wk =   0.0555556
        k(   51) = (   0.4714045  -0.2357023   0.5892557), wk =   0.0555556
        k(   52) = (   0.4124790  -0.1767767   0.5303301), wk =   0.0555556
        k(   53) = (   0.3535534  -0.1178511   0.4714045), wk =   0.0555556
        k(   54) = (   0.2946278  -0.0589256   0.4124790), wk =   0.0555556
        k(   55) = (   0.2357023   0.0000000   0.3535534), wk =   0.0277778
        k(   56) = (  -0.1178511   0.4714045   0.0000000), wk =   0.0277778
        k(   57) = (   0.5303301  -0.1767767   0.6481812), wk =   0.0555556
        k(   58) = (   0.4714045  -0.1178511   0.5892557), wk =   0.0555556
        k(   59) = (   0.4124790  -0.0589256   0.5303301), wk =   0.0555556
        k(   60) = (   0.3535534  -0.0000000   0.4714045), wk =   0.0277778
        k(   61) = (   0.5892557  -0.1178511   0.7071068), wk =   0.0277778
        k(   62) = (   0.5303301  -0.0589256   0.6481812), wk =   0.0555556
        k(   63) = (   0.4714045  -0.0000000   0.5892557), wk =   0.0277778
        k(   64) = (  -0.1178511  -0.7071068   0.0000000), wk =   0.0138889
        k(   65) = (   0.4714045  -0.2357023   0.7071068), wk =   0.0277778
        k(   66) = (   0.4124790  -0.1767767   0.6481812), wk =   0.0555556
        k(   67) = (   0.3535534  -0.1178511   0.5892557), wk =   0.0277778
        k(   68) = (   0.4714045  -0.1178511   0.7071068), wk =   0.0277778
        k(   69) = (   0.4124790  -0.0589256   0.6481812), wk =   0.0555556
        k(   70) = (   0.3535534   0.0000000   0.5892557), wk =   0.0277778
        k(   71) = (  -0.2357023  -0.7071068   0.0000000), wk =   0.0138889
        k(   72) = (  -0.3535534  -0.7071068   0.0000000), wk =   0.0069444

     Dense  grid:    12627 G-vectors     FFT dimensions: (  36,  36,  36)

     Smooth grid:     9185 G-vectors     FFT dimensions: (  30,  30,  30)

     Estimated max dynamical RAM per process >      15.26 MB

     Estimated total dynamical RAM >      61.05 MB

     Initial potential from superposition of free atoms

     starting charge    7.99866, renormalised to    8.00000
     Starting wfcs are    8 randomized atomic wfcs

     total cpu time spent up to now is        0.2 secs

     Self-consistent Calculation

     iteration #  1     ecut=    40.00 Ry     beta= 0.70
     Davidson diagonalization with overlap
     ethr =  1.00E-02,  avg # of iterations =  3.7

     Threshold (ethr) on eigenvalues was too large:
     Diagonalizing with lowered threshold

     Davidson diagonalization with overlap
     ethr =  7.39E-04,  avg # of iterations =  1.1

     total cpu time spent up to now is        0.8 secs

     total energy              =     -19.18929423 Ry
     Harris-Foulkes estimate   =     -19.20383287 Ry
     estimated scf accuracy    <       0.05817636 Ry

     iteration #  2     ecut=    40.00 Ry     beta= 0.70
     Davidson diagonalization with overlap
     ethr =  7.27E-04,  avg # of iterations =  1.0

     total cpu time spent up to now is        1.1 secs

     total energy              =     -19.19183070 Ry
     Harris-Foulkes estimate   =     -19.19193211 Ry
     estimated scf accuracy    <       0.00209774 Ry

     iteration #  3     ecut=    40.00 Ry     beta= 0.70
     Davidson diagonalization with overlap
     ethr =  2.62E-05,  avg # of iterations =  2.4

     total cpu time spent up to now is        1.3 secs

     total energy              =     -19.19196710 Ry
     Harris-Foulkes estimate   =     -19.19195909 Ry
     estimated scf accuracy    <       0.00004198 Ry

     iteration #  4     ecut=    40.00 Ry     beta= 0.70
     Davidson diagonalization with overlap
     ethr =  5.25E-07,  avg # of iterations =  3.0

     total cpu time spent up to now is        1.7 secs

     total energy              =     -19.19200558 Ry
     Harris-Foulkes estimate   =     -19.19200548 Ry
     estimated scf accuracy    <       0.00000011 Ry

     iteration #  5     ecut=    40.00 Ry     beta= 0.70
     Davidson diagonalization with overlap
     ethr =  1.38E-09,  avg # of iterations =  2.6

     total cpu time spent up to now is        2.0 secs

     End of self-consistent calculation

          k = 0.0000 0.0000 0.0000 (  1139 PWs)   bands (ev):

    -5.6919   6.4115   6.4115   6.4115   8.9867   8.9867   8.9867  10.0133

          k =-0.0589 0.0589-0.0589 (  1134 PWs)   bands (ev):

    -5.5993   5.5520   6.2646   6.2646   9.0619   9.2027   9.2027  10.6428

          k =-0.1179 0.1179-0.1179 (  1137 PWs)   bands (ev):

    -5.3243   4.0142   5.9523   5.9523   8.8299   9.6457   9.6457  12.0467

          k =-0.1768 0.1768-0.1768 (  1131 PWs)   bands (ev):

    -4.8776   2.4461   5.6383   5.6383   8.5134   9.9383   9.9383  13.5008

          k =-0.2357 0.2357-0.2357 (  1131 PWs)   bands (ev):

    -4.2888   1.0157   5.3946   5.3946   8.2493   9.9278   9.9278  14.3605

          k =-0.2946 0.2946-0.2946 (  1143 PWs)   bands (ev):

    -3.6532  -0.1366   5.2445   5.2445   8.0816   9.8061   9.8061  14.2587

          k = 0.3536-0.3536 0.3536 (  1158 PWs)   bands (ev):

    -3.3085  -0.6552   5.1942   5.1942   8.0247   9.7485   9.7485  14.1709

          k = 0.0000 0.1179 0.0000 (  1139 PWs)   bands (ev):

    -5.5683   5.7328   5.9707   5.9707   8.7075   9.5791   9.5791  10.6331

          k =-0.0589 0.1768-0.0589 (  1137 PWs)   bands (ev):

    -5.3536   4.4801   5.5996   5.8030   8.7331   9.7023  10.1270  11.4514

          k =-0.1179 0.2357-0.1179 (  1133 PWs)   bands (ev):

    -4.9626   2.9553   5.2816   5.4758   8.8846   9.6811  10.5134  11.8540

          k =-0.1768 0.2946-0.1768 (  1128 PWs)   bands (ev):

    -4.4161   1.4949   5.0693   5.1176   8.7615   9.7347  10.5253  12.4203

          k =-0.2357 0.3536-0.2357 (  1134 PWs)   bands (ev):

    -3.7764   0.2412   4.8164   4.9793   8.6027   9.6850  10.3176  13.4880

          k = 0.4125-0.2946 0.4125 (  1134 PWs)   bands (ev):

    -3.2713  -0.5473   4.6070   5.0121   8.5267   9.6796  10.1102  14.3897

          k = 0.3536-0.2357 0.3536 (  1130 PWs)   bands (ev):

    -3.3961  -0.3648   4.5084   5.1588   8.5575   9.7958   9.9976  14.4977

          k = 0.2946-0.1768 0.2946 (  1132 PWs)   bands (ev):

    -3.9934   0.6291   4.5337   5.4031   8.6932   9.9705  10.0117  13.9835

          k = 0.2357-0.1179 0.2357 (  1124 PWs)   bands (ev):

    -4.6143   1.9674   4.6932   5.7188   8.9197   9.8991  10.1778  13.0243

          k = 0.1768-0.0589 0.1768 (  1137 PWs)   bands (ev):

    -5.1124   3.4504   4.9987   6.0540   9.1987   9.6024   9.9781  12.2795

          k = 0.1179-0.0000 0.1179 (  1139 PWs)   bands (ev):

    -5.4457   4.8223   5.5270   6.2930   9.2400   9.4041   9.4121  11.4121

          k = 0.0000 0.2357 0.0000 (  1138 PWs)   bands (ev):

    -5.1993   4.3901   5.1925   5.1925   8.1125  10.7967  10.8043  10.8043

          k =-0.0589 0.2946-0.0589 (  1130 PWs)   bands (ev):

    -4.8662   3.2811   4.8464   4.8523   8.1332  10.3583  11.1357  11.3738

          k =-0.1179 0.3536-0.1179 (  1128 PWs)   bands (ev):

    -4.3688   1.9439   4.3900   4.6307   8.3777  10.5317  10.9732  11.5330

          k =-0.1768 0.4125-0.1768 (  1125 PWs)   bands (ev):

    -3.7482   0.6839   3.9445   4.5463   8.4242  10.7384  11.3391  11.4998

          k = 0.4714-0.2357 0.4714 (  1133 PWs)   bands (ev):

    -3.1494  -0.2725   3.5935   4.6021   8.4597  10.5868  11.0565  12.8957

          k = 0.4125-0.1768 0.4125 (  1128 PWs)   bands (ev):

    -3.0310  -0.4372   3.3740   4.7905   8.6136  10.5331  10.8259  14.4746

          k = 0.3536-0.1179 0.3536 (  1134 PWs)   bands (ev):

    -3.5445   0.3411   3.3129   5.0919   8.8929  10.5802  10.6624  13.8076

          k = 0.2946-0.0589 0.2946 (  1127 PWs)   bands (ev):

    -4.1828   1.5130   3.4539   5.4677   9.2421  10.4417  10.6297  12.6386

          k = 0.2357 0.0000 0.2357 (  1127 PWs)   bands (ev):

    -4.7252   2.6760   3.9477   5.8392   9.5169   9.9970  10.2987  12.1649

          k = 0.0000 0.3536 0.0000 (  1118 PWs)   bands (ev):

    -4.5908   2.8976   4.4832   4.4832   7.5266   9.5460  12.2391  12.2391

          k =-0.0589 0.4125-0.0589 (  1124 PWs)   bands (ev):

    -4.1461   1.9714   4.0099   4.2328   7.6111   9.1832  12.5444  12.7221

          k =-0.1179 0.4714-0.1179 (  1129 PWs)   bands (ev):

    -3.5593   0.9208   3.3668   4.1244   7.8278   9.6671  12.4211  12.6662

          k = 0.5303-0.1768 0.5303 (  1128 PWs)   bands (ev):

    -2.9206  -0.0276   2.8109   4.1644   7.9157  10.8798  12.2612  12.3775

          k = 0.4714-0.1179 0.4714 (  1130 PWs)   bands (ev):

    -2.5863  -0.4551   2.4404   4.3484   8.1005  11.9165  12.0755  12.6747

          k = 0.4125-0.0589 0.4125 (  1130 PWs)   bands (ev):

    -2.9726   0.0527   2.3150   4.6596   8.4354  11.7788  11.9159  13.7016

          k = 0.3536 0.0000 0.3536 (  1125 PWs)   bands (ev):

    -3.6090   0.8930   2.5807   5.0602   8.8781  11.2471  11.5967  12.6700

          k = 0.0000 0.4714 0.0000 (  1118 PWs)   bands (ev):

    -3.7537   1.3823   3.9467   3.9467   7.1139   8.3800  13.7689  13.7689

          k =-0.0589 0.5303-0.0589 (  1123 PWs)   bands (ev):

    -3.2088   0.5833   3.4486   3.8019   7.2766   8.2523  14.1105  14.1338

          k = 0.5893-0.1179 0.5893 (  1127 PWs)   bands (ev):

    -2.5664  -0.1991   2.7020   3.8086   7.4483   9.1291  13.9382  14.0110

          k = 0.5303-0.0589 0.5303 (  1136 PWs)   bands (ev):

    -2.0835  -0.7029   2.1089   3.9655   7.6287  10.5964  13.5834  13.8428

          k = 0.4714-0.0000 0.4714 (  1141 PWs)   bands (ev):

    -2.3611  -0.4130   1.9024   4.2599   7.9643  12.2396  12.9626  13.6012

          k = 0.0000 0.5893 0.0000 (  1126 PWs)   bands (ev):

    -2.7055  -0.0934   3.6163   3.6163   6.9517   7.5544  15.3578  15.3578

          k = 0.6482-0.0589 0.6482 (  1132 PWs)   bands (ev):

    -2.0800  -0.7931   3.1721   3.5823   7.1524   7.7305  15.6005  15.7224

          k = 0.5893 0.0000 0.5893 (  1132 PWs)   bands (ev):

    -1.6106  -1.2067   2.4822   3.7016   7.3143   8.9541  15.0522  15.6397

          k = 0.0000-0.7071 0.0000 (  1138 PWs)   bands (ev):

    -1.4727  -1.4727   3.5050   3.5050   7.0866   7.0866  16.6994  16.6994

          k =-0.1179 0.2357-0.0000 (  1134 PWs)   bands (ev):

    -5.0800   3.6796   4.7415   5.6968   8.7584  10.0411  10.6115  11.3620

          k =-0.1768 0.2946-0.0589 (  1125 PWs)   bands (ev):

    -4.6354   2.4169   4.2046   5.4157   9.0502   9.9959  11.0199  11.3261

          k =-0.2357 0.3536-0.1179 (  1127 PWs)   bands (ev):

    -4.0485   1.0895   3.9365   5.0804   9.1092   9.8324  11.0752  11.9928

          k = 0.4125-0.2946 0.5303 (  1131 PWs)   bands (ev):

    -3.4118  -0.0240   3.8112   4.8273   9.0673   9.6152  10.9878  13.2334

          k = 0.3536-0.2357 0.4714 (  1128 PWs)   bands (ev):

    -3.0629  -0.5357   3.7768   4.7328   9.0536   9.5183  10.9407  14.5732

          k =-0.1179 0.3536 0.0000 (  1122 PWs)   bands (ev):

    -4.4780   2.4809   4.0333   4.7555   8.1999   9.9559  11.2901  12.1161

          k =-0.1768 0.4125-0.0589 (  1124 PWs)   bands (ev):

    -3.9350   1.4105   3.4900   4.4588   8.5362  10.1724  11.0352  12.5043

          k = 0.4714-0.2357 0.5893 (  1126 PWs)   bands (ev):

    -3.2957   0.3315   3.1324   4.2418   8.6572  10.6549  11.2739  12.4840

          k = 0.4125-0.1768 0.5303 (  1131 PWs)   bands (ev):

    -2.7847  -0.3944   2.8837   4.2231   8.7889  10.3823  12.3676  12.7616

          k = 0.3536-0.1179 0.4714 (  1132 PWs)   bands (ev):

    -2.9244  -0.2019   2.7608   4.4004   9.0473  10.1869  12.2932  13.1338

          k = 0.2946-0.0589 0.4125 (  1130 PWs)   bands (ev):

    -3.5297   0.6978   2.8304   4.7253   9.4211  10.0401  11.7586  12.2324

          k = 0.2357 0.0000 0.3536 (  1128 PWs)   bands (ev):

    -4.1450   1.6967   3.2484   5.1168   9.6463   9.8213  11.1106  11.8088

          k =-0.1179 0.4714 0.0000 (  1133 PWs)   bands (ev):

    -3.6527   1.2028   3.5144   3.9508   7.7928   8.8779  12.5553  13.7157

          k = 0.5303-0.1768 0.6482 (  1127 PWs)   bands (ev):

    -3.0346   0.3524   2.9138   3.7280   8.1277   9.4222  12.2483  14.0908

          k = 0.4714-0.1179 0.5893 (  1135 PWs)   bands (ev):

    -2.4303  -0.3796   2.3815   3.7366   8.2826  10.7322  11.9506  14.0288

          k = 0.4125-0.0589 0.5303 (  1130 PWs)   bands (ev):

    -2.3557  -0.4540   2.0852   3.9400   8.5454  11.5064  12.5230  13.2326

          k = 0.3536-0.0000 0.4714 (  1128 PWs)   bands (ev):

    -2.9066   0.1489   2.1728   4.2931   8.9481  11.0956  11.9715  13.3186

          k = 0.5893-0.1179 0.7071 (  1127 PWs)   bands (ev):

    -2.6257  -0.1294   3.2251   3.4242   7.6153   8.1249  13.9472  15.3551

          k = 0.5303-0.0589 0.6482 (  1130 PWs)   bands (ev):

    -1.9828  -0.7833   2.5780   3.3799   7.9080   9.0526  13.6196  15.1368

          k = 0.4714-0.0000 0.5893 (  1137 PWs)   bands (ev):

    -1.8199  -0.9022   2.0665   3.5813   8.1502  10.6026  13.1545  13.5463

          k =-0.1179-0.7071 0.0000 (  1134 PWs)   bands (ev):

    -1.4326  -1.4326   3.1883   3.1883   7.7137   7.7137  15.4440  15.4440

          k = 0.4714-0.2357 0.7071 (  1124 PWs)   bands (ev):

    -3.3594   0.7342   2.7678   4.0688   9.2782  10.1238  10.7118  13.5633

          k = 0.4125-0.1768 0.6482 (  1129 PWs)   bands (ev):

    -2.7210  -0.0512   2.4156   3.7226   9.6489  10.2041  11.2173  13.9925

          k = 0.3536-0.1179 0.5893 (  1138 PWs)   bands (ev):

    -2.3502  -0.4927   2.3228   3.5896   9.7627  10.0137  12.5595  13.0168

          k = 0.4714-0.1179 0.7071 (  1126 PWs)   bands (ev):

    -2.4052  -0.2750   2.5633   3.1922   9.1008   9.4985  11.8619  14.8314

          k = 0.4125-0.0589 0.6482 (  1135 PWs)   bands (ev):

    -1.8689  -0.7912   2.2381   3.0348   9.4419  10.7115  11.5906  12.9836

          k = 0.3536 0.0000 0.5893 (  1131 PWs)   bands (ev):

    -2.1047  -0.5583   2.1105   3.2653   9.7462  10.9143  11.4672  12.7288

          k =-0.2357-0.7071 0.0000 (  1138 PWs)   bands (ev):

    -1.3462  -1.3462   2.6871   2.6871   9.1631   9.1631  13.2560  13.2560

          k =-0.3536-0.7071 0.0000 (  1124 PWs)   bands (ev):

    -1.2995  -1.2995   2.4726   2.4726  10.6851  10.6851  11.4903  11.4903

     the Fermi energy is     6.6730 ev

!    total energy              =     -19.19200568 Ry
     Harris-Foulkes estimate   =     -19.19200567 Ry
     estimated scf accuracy    <          4.4E-09 Ry

     The total energy is the sum of the following terms:

     one-electron contribution =       5.27032335 Ry
     hartree contribution      =       1.09763694 Ry
     xc contribution           =      -8.64604512 Ry
     ewald contribution        =     -16.91392083 Ry
     smearing contrib. (-TS)   =      -0.00000001 Ry

     convergence has been achieved in   5 iterations

     Forces acting on atoms (cartesian axes, Ry/au):

     atom    1 type  1   force =    -0.00000000    0.00000000   -0.00000000
     atom    2 type  1   force =     0.00000000   -0.00000000    0.00000000

     Total force =     0.000000     Total SCF correction =     0.000000

     BFGS Geometry Optimization

     bfgs converged in   1 scf cycles and   0 bfgs steps
     (criteria: energy <  1.0E-05 Ry, force <  1.0E-03 Ry/Bohr)

     End of BFGS Geometry Optimization

     Final energy   =     -19.1920056760 Ry
Begin final coordinates

ATOMIC_POSITIONS (crystal)
Si       0.000000000   0.000000000   0.000000000
Si       0.250000000   0.250000000   0.250000000
End final coordinates



     Writing output data file Si.diamond.relax.save/
 
     init_run     :      0.13s CPU      0.14s WALL (       1 calls)
     electrons    :      1.69s CPU      1.80s WALL (       1 calls)
     forces       :      0.03s CPU      0.03s WALL (       1 calls)

     Called by init_run:
     wfcinit      :      0.08s CPU      0.08s WALL (       1 calls)
     potinit      :      0.00s CPU      0.01s WALL (       1 calls)
     hinit0       :      0.03s CPU      0.04s WALL (       1 calls)

     Called by electrons:
     c_bands      :      1.39s CPU      1.49s WALL (       6 calls)
     sum_band     :      0.25s CPU      0.27s WALL (       6 calls)
     v_of_rho     :      0.02s CPU      0.02s WALL (       6 calls)
     newd         :      0.02s CPU      0.03s WALL (       6 calls)
     mix_rho      :      0.00s CPU      0.00s WALL (       6 calls)

     Called by c_bands:
     init_us_2    :      0.06s CPU      0.06s WALL (    1008 calls)
     cegterg      :      1.16s CPU      1.24s WALL (     432 calls)

     Called by sum_band:
     sum_band:bec :      0.00s CPU      0.00s WALL (     432 calls)
     addusdens    :      0.03s CPU      0.04s WALL (       6 calls)

     Called by *egterg:
     h_psi        :      0.97s CPU      1.04s WALL (    1496 calls)
     s_psi        :      0.03s CPU      0.03s WALL (    1496 calls)
     g_psi        :      0.00s CPU      0.00s WALL (     992 calls)
     cdiaghg      :      0.12s CPU      0.13s WALL (    1352 calls)

     Called by h_psi:
     h_psi:pot    :      0.97s CPU      1.04s WALL (    1496 calls)
     h_psi:calbec :      0.05s CPU      0.06s WALL (    1496 calls)
     vloc_psi     :      0.88s CPU      0.94s WALL (    1496 calls)
     add_vuspsi   :      0.03s CPU      0.03s WALL (    1496 calls)

     General routines
     calbec       :      0.07s CPU      0.08s WALL (    2216 calls)
     fft          :      0.01s CPU      0.01s WALL (      89 calls)
     ffts         :      0.00s CPU      0.00s WALL (      12 calls)
     fftw         :      0.95s CPU      1.01s WALL (   22400 calls)
     interpolate  :      0.00s CPU      0.00s WALL (       6 calls)
 
     Parallel routines
     fft_scatt_xy :      0.14s CPU      0.15s WALL (   22501 calls)
     fft_scatt_yz :      0.37s CPU      0.40s WALL (   22501 calls)
 
     PWSCF        :     1.90s CPU         2.09s WALL

 
   This run was terminated on:  11:28:28  14Jun2019            

=------------------------------------------------------------------------------=
   JOB DONE.
=------------------------------------------------------------------------------=
