===== VARIABLES =====
EXE_PATH = /scr/szymansk/2019-3/qe-bin/bin/pw.x
tpp = 4
Parallel keywords = -nimage 1
MPIRUN_EXE = orterun
PATH = /scr/szymansk/2019-3/mmshare-v4.7/lib/Linux-x86_64/openmpi/bin:/scr/szymansk/2019-3/internal/bin:/scr/szymansk/2019-3/mmshare-v4.7/bin/Linux-x86_64:/home/szymansk/bin:/scr/szymansk/dakota/bin:/scr/szymansk/atompaw-4.1.0.5/src/:/usr/lib64/qt-3.3/bin:/usr/local/bin:/usr/local/sbin:/usr/bin:/usr/sbin:/bin:/sbin
LD_LIBRARY_PATH = /scr/szymansk/2019-3/mmshare-v4.7/lib/Linux-x86_64/openmpi/lib:/scr/szymansk/2019-3/internal/lib/ssl:/scr/szymansk/2019-3/internal/lib:/scr/szymansk/2019-3/mmshare-v4.7/lib/Linux-x86_64:/scr/szymansk/2019-3/internal/lib/python3.6/site-packages:/scr/szymansk/dakota/bin:/software/lib/Linux-x86_64/ifort_2017.1.132/mkl/lib/intel64
===== END VARIABLES =====
Invoking: exe_cmd () 
{ 
    "$MPIRUN_EXE" -np $tpp "$EXE_PATH" -in $input_file "${P_KEYWORDS[@]}"
}

     Program PWSCF v.6.3MaX starts on 14Jun2019 at 11:28:19 

     This program is part of the open-source Quantum ESPRESSO suite
     for quantum simulation of materials; please cite
         "P. Giannozzi et al., J. Phys.:Condens. Matter 21 395502 (2009);
         "P. Giannozzi et al., J. Phys.:Condens. Matter 29 465901 (2017);
          URL http://www.quantum-espresso.org", 
     in publications or presentations arising from this work. More details at
     http://www.quantum-espresso.org/quote

     Parallel version (MPI), running on     4 processors

     MPI processes distributed on     1 nodes
     R & G space division:  proc/nbgrp/npool/nimage =       4
     Reading input from Si.diamond.relax.in
Warning: card &CELL ignored
Warning: card   CELL_DYNAMICS='BFGS' ignored
Warning: card / ignored

     Current dimensions of program PWSCF are:
     Max number of different atomic species (ntypx) = 10
     Max number of k-points (npk) =  40000
     Max angular momentum in pseudopotentials (lmaxx) =  3

     Subspace diagonalization in iterative solution of the eigenvalue problem:
     a serial algorithm will be used

 
     Parallelization info
     --------------------
     sticks:   dense  smooth     PW     G-vecs:    dense   smooth      PW
     Min         175     139     46                 3084     2198     409
     Max         177     140     47                 3086     2201     411
     Sum         703     559    187                12339     8801    1639
 


     bravais-lattice index     =            0
     lattice parameter (alat)  =       7.1561  a.u.
     unit-cell volume          =     259.1229 (a.u.)^3
     number of atoms/cell      =            2
     number of atomic types    =            1
     number of electrons       =         8.00
     number of Kohn-Sham states=            8
     kinetic-energy cutoff     =      40.0000  Ry
     charge density cutoff     =     200.0000  Ry
     convergence threshold     =      1.0E-08
     mixing beta               =       0.7000
     number of iterations used =            8  plain     mixing
     Exchange-correlation      = SLA  PW   PBE  PBE ( 1  4  3  4 0 0)
     nstep                     =           50


     celldm(1)=   7.156054  celldm(2)=   0.000000  celldm(3)=   0.000000
     celldm(4)=   0.000000  celldm(5)=   0.000000  celldm(6)=   0.000000

     crystal axes: (cart. coord. in units of alat)
               a(1) = (  -0.707107   0.000000   0.707107 )  
               a(2) = (   0.000000   0.707107   0.707107 )  
               a(3) = (  -0.707107   0.707107   0.000000 )  

     reciprocal axes: (cart. coord. in units 2 pi/alat)
               b(1) = ( -0.707107 -0.707107  0.707107 )  
               b(2) = (  0.707107  0.707107  0.707107 )  
               b(3) = ( -0.707107  0.707107 -0.707107 )  


     PseudoPot. # 1 for Si read from file:
     ./Si.GGA-PBE-paw.UPF
     MD5 check sum: a056efeee980c13900f22a371efd63c1
     Pseudo is Ultrasoft + core correction, Zval =  4.0
     Generated by new atomic code, or converted to UPF format
     Using radial grid of  899 points,  6 beta functions with: 
                l(1) =   0
                l(2) =   0
                l(3) =   1
                l(4) =   1
                l(5) =   2
                l(6) =   2
     Q(r) pseudized with  8 coefficients,  rinner =    0.900   0.900   0.900
                                                       0.900   0.900

     atomic species   valence    mass     pseudopotential
        Si             4.00    28.08550     Si( 1.00)

     48 Sym. Ops., with inversion, found (24 have fractional translation)



   Cartesian axes

     site n.     atom                  positions (alat units)
         1           Si  tau(   1) = (   0.0000000   0.0000000   0.0000000  )
         2           Si  tau(   2) = (  -0.3535534   0.3535534   0.3535534  )

     number of k points=    72  Fermi-Dirac smearing, width (Ry)=  0.0020
                       cart. coord. in units 2pi/alat
        k(    1) = (   0.0000000   0.0000000   0.0000000), wk =   0.0011574
        k(    2) = (  -0.0589256   0.0589256  -0.0589256), wk =   0.0092593
        k(    3) = (  -0.1178511   0.1178511  -0.1178511), wk =   0.0092593
        k(    4) = (  -0.1767767   0.1767767  -0.1767767), wk =   0.0092593
        k(    5) = (  -0.2357023   0.2357023  -0.2357023), wk =   0.0092593
        k(    6) = (  -0.2946278   0.2946278  -0.2946278), wk =   0.0092593
        k(    7) = (   0.3535534  -0.3535534   0.3535534), wk =   0.0046296
        k(    8) = (   0.0000000   0.1178511   0.0000000), wk =   0.0069444
        k(    9) = (  -0.0589256   0.1767767  -0.0589256), wk =   0.0277778
        k(   10) = (  -0.1178511   0.2357023  -0.1178511), wk =   0.0277778
        k(   11) = (  -0.1767767   0.2946278  -0.1767767), wk =   0.0277778
        k(   12) = (  -0.2357023   0.3535534  -0.2357023), wk =   0.0277778
        k(   13) = (   0.4124790  -0.2946278   0.4124790), wk =   0.0277778
        k(   14) = (   0.3535534  -0.2357023   0.3535534), wk =   0.0277778
        k(   15) = (   0.2946278  -0.1767767   0.2946278), wk =   0.0277778
        k(   16) = (   0.2357023  -0.1178511   0.2357023), wk =   0.0277778
        k(   17) = (   0.1767767  -0.0589256   0.1767767), wk =   0.0277778
        k(   18) = (   0.1178511  -0.0000000   0.1178511), wk =   0.0138889
        k(   19) = (   0.0000000   0.2357023   0.0000000), wk =   0.0069444
        k(   20) = (  -0.0589256   0.2946278  -0.0589256), wk =   0.0277778
        k(   21) = (  -0.1178511   0.3535534  -0.1178511), wk =   0.0277778
        k(   22) = (  -0.1767767   0.4124790  -0.1767767), wk =   0.0277778
        k(   23) = (   0.4714045  -0.2357023   0.4714045), wk =   0.0277778
        k(   24) = (   0.4124790  -0.1767767   0.4124790), wk =   0.0277778
        k(   25) = (   0.3535534  -0.1178511   0.3535534), wk =   0.0277778
        k(   26) = (   0.2946278  -0.0589256   0.2946278), wk =   0.0277778
        k(   27) = (   0.2357023   0.0000000   0.2357023), wk =   0.0138889
        k(   28) = (   0.0000000   0.3535534   0.0000000), wk =   0.0069444
        k(   29) = (  -0.0589256   0.4124790  -0.0589256), wk =   0.0277778
        k(   30) = (  -0.1178511   0.4714045  -0.1178511), wk =   0.0277778
        k(   31) = (   0.5303301  -0.1767767   0.5303301), wk =   0.0277778
        k(   32) = (   0.4714045  -0.1178511   0.4714045), wk =   0.0277778
        k(   33) = (   0.4124790  -0.0589256   0.4124790), wk =   0.0277778
        k(   34) = (   0.3535534   0.0000000   0.3535534), wk =   0.0138889
        k(   35) = (   0.0000000   0.4714045   0.0000000), wk =   0.0069444
        k(   36) = (  -0.0589256   0.5303301  -0.0589256), wk =   0.0277778
        k(   37) = (   0.5892557  -0.1178511   0.5892557), wk =   0.0277778
        k(   38) = (   0.5303301  -0.0589256   0.5303301), wk =   0.0277778
        k(   39) = (   0.4714045  -0.0000000   0.4714045), wk =   0.0138889
        k(   40) = (   0.0000000   0.5892557   0.0000000), wk =   0.0069444
        k(   41) = (   0.6481812  -0.0589256   0.6481812), wk =   0.0277778
        k(   42) = (   0.5892557   0.0000000   0.5892557), wk =   0.0138889
        k(   43) = (   0.0000000  -0.7071068   0.0000000), wk =   0.0034722
        k(   44) = (  -0.1178511   0.2357023  -0.0000000), wk =   0.0277778
        k(   45) = (  -0.1767767   0.2946278  -0.0589256), wk =   0.0555556
        k(   46) = (  -0.2357023   0.3535534  -0.1178511), wk =   0.0555556
        k(   47) = (   0.4124790  -0.2946278   0.5303301), wk =   0.0555556
        k(   48) = (   0.3535534  -0.2357023   0.4714045), wk =   0.0277778
        k(   49) = (  -0.1178511   0.3535534   0.0000000), wk =   0.0277778
        k(   50) = (  -0.1767767   0.4124790  -0.0589256), wk =   0.0555556
        k(   51) = (   0.4714045  -0.2357023   0.5892557), wk =   0.0555556
        k(   52) = (   0.4124790  -0.1767767   0.5303301), wk =   0.0555556
        k(   53) = (   0.3535534  -0.1178511   0.4714045), wk =   0.0555556
        k(   54) = (   0.2946278  -0.0589256   0.4124790), wk =   0.0555556
        k(   55) = (   0.2357023   0.0000000   0.3535534), wk =   0.0277778
        k(   56) = (  -0.1178511   0.4714045   0.0000000), wk =   0.0277778
        k(   57) = (   0.5303301  -0.1767767   0.6481812), wk =   0.0555556
        k(   58) = (   0.4714045  -0.1178511   0.5892557), wk =   0.0555556
        k(   59) = (   0.4124790  -0.0589256   0.5303301), wk =   0.0555556
        k(   60) = (   0.3535534  -0.0000000   0.4714045), wk =   0.0277778
        k(   61) = (   0.5892557  -0.1178511   0.7071068), wk =   0.0277778
        k(   62) = (   0.5303301  -0.0589256   0.6481812), wk =   0.0555556
        k(   63) = (   0.4714045  -0.0000000   0.5892557), wk =   0.0277778
        k(   64) = (  -0.1178511  -0.7071068   0.0000000), wk =   0.0138889
        k(   65) = (   0.4714045  -0.2357023   0.7071068), wk =   0.0277778
        k(   66) = (   0.4124790  -0.1767767   0.6481812), wk =   0.0555556
        k(   67) = (   0.3535534  -0.1178511   0.5892557), wk =   0.0277778
        k(   68) = (   0.4714045  -0.1178511   0.7071068), wk =   0.0277778
        k(   69) = (   0.4124790  -0.0589256   0.6481812), wk =   0.0555556
        k(   70) = (   0.3535534   0.0000000   0.5892557), wk =   0.0277778
        k(   71) = (  -0.2357023  -0.7071068   0.0000000), wk =   0.0138889
        k(   72) = (  -0.3535534  -0.7071068   0.0000000), wk =   0.0069444

     Dense  grid:    12339 G-vectors     FFT dimensions: (  36,  36,  36)

     Smooth grid:     8801 G-vectors     FFT dimensions: (  30,  30,  30)

     Estimated max dynamical RAM per process >      14.96 MB

     Estimated total dynamical RAM >      59.84 MB

     Initial potential from superposition of free atoms

     starting charge    7.99866, renormalised to    8.00000
     Starting wfcs are    8 randomized atomic wfcs

     total cpu time spent up to now is        0.3 secs

     Self-consistent Calculation

     iteration #  1     ecut=    40.00 Ry     beta= 0.70
     Davidson diagonalization with overlap
     ethr =  1.00E-02,  avg # of iterations =  3.8

     Threshold (ethr) on eigenvalues was too large:
     Diagonalizing with lowered threshold

     Davidson diagonalization with overlap
     ethr =  7.65E-04,  avg # of iterations =  1.0

     total cpu time spent up to now is        1.2 secs

     total energy              =     -19.18715854 Ry
     Harris-Foulkes estimate   =     -19.20265319 Ry
     estimated scf accuracy    <       0.06015564 Ry

     iteration #  2     ecut=    40.00 Ry     beta= 0.70
     Davidson diagonalization with overlap
     ethr =  7.52E-04,  avg # of iterations =  1.0

     total cpu time spent up to now is        1.6 secs

     total energy              =     -19.18989834 Ry
     Harris-Foulkes estimate   =     -19.18999412 Ry
     estimated scf accuracy    <       0.00207572 Ry

     iteration #  3     ecut=    40.00 Ry     beta= 0.70
     Davidson diagonalization with overlap
     ethr =  2.59E-05,  avg # of iterations =  2.5

     total cpu time spent up to now is        2.0 secs

     total energy              =     -19.19004135 Ry
     Harris-Foulkes estimate   =     -19.19003299 Ry
     estimated scf accuracy    <       0.00004380 Ry

     iteration #  4     ecut=    40.00 Ry     beta= 0.70
     Davidson diagonalization with overlap
     ethr =  5.48E-07,  avg # of iterations =  3.0

     total cpu time spent up to now is        2.3 secs

     total energy              =     -19.19007971 Ry
     Harris-Foulkes estimate   =     -19.19007960 Ry
     estimated scf accuracy    <       0.00000013 Ry

     iteration #  5     ecut=    40.00 Ry     beta= 0.70
     Davidson diagonalization with overlap
     ethr =  1.57E-09,  avg # of iterations =  2.6

     total cpu time spent up to now is        2.6 secs

     End of self-consistent calculation

          k = 0.0000 0.0000 0.0000 (  1067 PWs)   bands (ev):

    -5.6149   6.6377   6.6377   6.6377   9.2206   9.2206   9.2206  10.4861

          k =-0.0589 0.0589-0.0589 (  1097 PWs)   bands (ev):

    -5.5206   5.7756   6.4874   6.4874   9.3234   9.4415   9.4415  11.0867

          k =-0.1179 0.1179-0.1179 (  1104 PWs)   bands (ev):

    -5.2405   4.2211   6.1692   6.1692   9.1193   9.8915   9.8915  12.4663

          k =-0.1768 0.1768-0.1768 (  1101 PWs)   bands (ev):

    -4.7853   2.6301   5.8506   5.8506   8.8103  10.1803  10.1803  13.9028

          k =-0.2357 0.2357-0.2357 (  1089 PWs)   bands (ev):

    -4.1842   1.1756   5.6039   5.6039   8.5487  10.1563  10.1563  14.6581

          k =-0.2946 0.2946-0.2946 (  1113 PWs)   bands (ev):

    -3.5327  -0.0001   5.4523   5.4523   8.3821  10.0243  10.0243  14.5158

          k = 0.3536-0.3536 0.3536 (  1104 PWs)   bands (ev):

    -3.1766  -0.5326   5.4016   5.4016   8.3254   9.9632   9.9632  14.4226

          k = 0.0000 0.1179 0.0000 (  1099 PWs)   bands (ev):

    -5.4890   5.9730   6.1853   6.1853   8.9362   9.8271   9.8271  11.0857

          k =-0.0589 0.1768-0.0589 (  1116 PWs)   bands (ev):

    -5.2704   4.6997   5.8067   6.0237   8.9649   9.9885  10.3849  11.8132

          k =-0.1179 0.2357-0.1179 (  1108 PWs)   bands (ev):

    -4.8720   3.1514   5.4837   5.6924   9.1398   9.9602  10.7714  12.1114

          k =-0.1768 0.2946-0.1768 (  1101 PWs)   bands (ev):

    -4.3146   1.6662   5.2690   5.3290   9.0380   9.9829  10.7701  12.6780

          k =-0.2357 0.3536-0.2357 (  1109 PWs)   bands (ev):

    -3.6601   0.3883   5.0228   5.1792   8.8871   9.9149  10.5488  13.7668

          k = 0.4125-0.2946 0.4125 (  1107 PWs)   bands (ev):

    -3.1397  -0.4199   4.8089   5.2141   8.8161   9.9016  10.3332  14.6678

          k = 0.3536-0.2357 0.3536 (  1113 PWs)   bands (ev):

    -3.2688  -0.2322   4.7067   5.3646   8.8513  10.0170  10.2188  14.7753

          k = 0.2946-0.1768 0.2946 (  1113 PWs)   bands (ev):

    -3.8824   0.7841   4.7300   5.6139   8.9901  10.1970  10.2395  14.2903

          k = 0.2357-0.1179 0.2357 (  1107 PWs)   bands (ev):

    -4.5168   2.1471   4.8891   5.9354   9.2169  10.1367  10.4202  13.3396

          k = 0.1768-0.0589 0.1768 (  1108 PWs)   bands (ev):

    -5.0247   3.6552   5.1961   6.2763   9.4909   9.8446  10.2359  12.6309

          k = 0.1179-0.0000 0.1179 (  1115 PWs)   bands (ev):

    -5.3642   5.0467   5.7306   6.5190   9.4776   9.6516   9.6998  11.8250

          k = 0.0000 0.2357 0.0000 (  1094 PWs)   bands (ev):

    -5.1133   4.6323   5.3909   5.3909   8.3296  11.0757  11.0757  11.0926

          k =-0.0589 0.2946-0.0589 (  1104 PWs)   bands (ev):

    -4.7741   3.5001   5.0448   5.0465   8.3512  10.6198  11.4046  11.6516

          k =-0.1179 0.3536-0.1179 (  1105 PWs)   bands (ev):

    -4.2670   2.1353   4.5858   4.8202   8.5988  10.7932  11.2455  11.8010

          k =-0.1768 0.4125-0.1768 (  1104 PWs)   bands (ev):

    -3.6330   0.8492   4.1338   4.7355   8.6447  11.0270  11.5919  11.7619

          k = 0.4714-0.2357 0.4714 (  1115 PWs)   bands (ev):

    -3.0179  -0.1303   3.7762   4.7937   8.6836  10.8701  11.2988  13.1818

          k = 0.4125-0.1768 0.4125 (  1114 PWs)   bands (ev):

    -2.8953  -0.3002   3.5507   4.9868   8.8467  10.8108  11.0636  14.7836

          k = 0.3536-0.1179 0.3536 (  1109 PWs)   bands (ev):

    -3.4239   0.4983   3.4848   5.2949   9.1408  10.8505  10.9030  14.0211

          k = 0.2946-0.0589 0.2946 (  1098 PWs)   bands (ev):

    -4.0768   1.6963   3.6220   5.6788   9.5085  10.6914  10.8936  12.9576

          k = 0.2357 0.0000 0.2357 (  1103 PWs)   bands (ev):

    -4.6301   2.8813   4.1188   6.0582   9.8029  10.2460  10.5616  12.4765

          k = 0.0000 0.3536 0.0000 (  1094 PWs)   bands (ev):

    -4.4937   3.1259   4.6688   4.6688   7.7313   9.7618  12.5342  12.5343

          k =-0.0589 0.4125-0.0589 (  1097 PWs)   bands (ev):

    -4.0407   2.1831   4.1869   4.4144   7.8164   9.3910  12.8569  13.0172

          k =-0.1179 0.4714-0.1179 (  1097 PWs)   bands (ev):

    -3.4419   1.1099   3.5321   4.3048   8.0304   9.8894  12.7449  12.9459

          k = 0.5303-0.1768 0.5303 (  1108 PWs)   bands (ev):

    -2.7877   0.1381   2.9666   4.3464   8.1174  11.1184  12.5935  12.6447

          k = 0.4714-0.1179 0.4714 (  1115 PWs)   bands (ev):

    -2.4422  -0.3031   2.5882   4.5346   8.3076  12.1831  12.3374  12.9987

          k = 0.4125-0.0589 0.4125 (  1112 PWs)   bands (ev):

    -2.8395   0.2192   2.4564   4.8526   8.6533  12.0448  12.2024  13.9776

          k = 0.3536 0.0000 0.3536 (  1117 PWs)   bands (ev):

    -3.4910   1.0780   2.7236   5.2620   9.1132  11.5157  11.8711  13.0093

          k = 0.0000 0.4714 0.0000 (  1110 PWs)   bands (ev):

    -3.6412   1.5885   4.1232   4.1232   7.3080   8.5719  14.0875  14.0876

          k =-0.0589 0.5303-0.0589 (  1103 PWs)   bands (ev):

    -3.0858   0.7762   3.6119   3.9762   7.4707   8.4479  14.4461  14.4463

          k = 0.5893-0.1179 0.5893 (  1108 PWs)   bands (ev):

    -2.4293  -0.0206   2.8454   3.9835   7.6393   9.3481  14.2359  14.3553

          k = 0.5303-0.0589 0.5303 (  1117 PWs)   bands (ev):

    -1.9316  -0.5378   2.2370   4.1438   7.8231  10.8369  13.8774  14.1865

          k = 0.4714-0.0000 0.4714 (  1125 PWs)   bands (ev):

    -2.2140  -0.2442   2.0257   4.4442   8.1674  12.4853  13.2602  13.9406

          k = 0.0000 0.5893 0.0000 (  1102 PWs)   bands (ev):

    -2.5734   0.0872   3.7874   3.7874   7.1379   7.7375  15.7026  15.7027

          k = 0.6482-0.0589 0.6482 (  1115 PWs)   bands (ev):

    -1.9355  -0.6246   3.3295   3.7529   7.3375   7.9252  15.9405  16.0850

          k = 0.5893 0.0000 0.5893 (  1114 PWs)   bands (ev):

    -1.4519  -1.0480   2.6189   3.8747   7.5015   9.1728  15.3934  16.0398

          k = 0.0000-0.7071 0.0000 (  1106 PWs)   bands (ev):

    -1.3175  -1.3175   3.6743   3.6743   7.2687   7.2687  17.1089  17.1089

          k =-0.1179 0.2357-0.0000 (  1110 PWs)   bands (ev):

    -4.9917   3.8985   4.9290   5.9143   8.9889  10.3447  10.8787  11.6178

          k =-0.1768 0.2946-0.0589 (  1099 PWs)   bands (ev):

    -4.5387   2.6136   4.3874   5.6268   9.2905  10.2873  11.2878  11.5627

          k =-0.2357 0.3536-0.1179 (  1108 PWs)   bands (ev):

    -3.9396   1.2598   4.1208   5.2834   9.3648  10.0841  11.3401  12.2488

          k = 0.4125-0.2946 0.5303 (  1114 PWs)   bands (ev):

    -3.2871   0.1218   3.9976   5.0234   9.3375   9.8381  11.2462  13.5157

          k = 0.3536-0.2357 0.4714 (  1112 PWs)   bands (ev):

    -2.9269  -0.4041   3.9643   4.9262   9.3336   9.7270  11.1973  14.8835

          k =-0.1179 0.3536 0.0000 (  1103 PWs)   bands (ev):

    -4.3786   2.6948   4.2077   4.9508   8.4186  10.1851  11.5758  12.4079

          k =-0.1768 0.4125-0.0589 (  1104 PWs)   bands (ev):

    -3.8248   1.6035   3.6582   4.6456   8.7575  10.3997  11.3226  12.7981

          k = 0.4714-0.2357 0.5893 (  1100 PWs)   bands (ev):

    -3.1710   0.4991   3.2997   4.4220   8.8769  10.9055  11.5484  12.7767

          k = 0.4125-0.1768 0.5303 (  1110 PWs)   bands (ev):

    -2.6450  -0.2472   3.0479   4.4028   9.0119  10.6373  12.6445  13.0604

          k = 0.3536-0.1179 0.4714 (  1109 PWs)   bands (ev):

    -2.7889  -0.0492   2.9201   4.5848   9.2788  10.4364  12.5826  13.4142

          k = 0.2946-0.0589 0.4125 (  1107 PWs)   bands (ev):

    -3.4100   0.8741   2.9850   4.9180   9.6673  10.2850  12.0324  12.5101

          k = 0.2357 0.0000 0.3536 (  1105 PWs)   bands (ev):

    -4.0385   1.8935   3.4057   5.3195   9.8901  10.0892  11.3562  12.0921

          k =-0.1179 0.4714 0.0000 (  1091 PWs)   bands (ev):

    -3.5378   1.4047   3.6792   4.1248   8.0013   9.0813  12.8593  14.0323

          k = 0.5303-0.1768 0.6482 (  1101 PWs)   bands (ev):

    -2.9066   0.5389   3.0651   3.8959   8.3359   9.6422  12.5451  14.4126

          k = 0.4714-0.1179 0.5893 (  1108 PWs)   bands (ev):

    -2.2867  -0.2112   2.5210   3.9053   8.4913  10.9695  12.2444  14.3552

          k = 0.4125-0.0589 0.5303 (  1112 PWs)   bands (ev):

    -2.2082  -0.2892   2.2167   4.1136   8.7602  11.7636  12.8021  13.5400

          k = 0.3536-0.0000 0.4714 (  1108 PWs)   bands (ev):

    -2.7731   0.3267   2.3050   4.4750   9.1738  11.3563  12.2462  13.6067

          k = 0.5893-0.1179 0.7071 (  1102 PWs)   bands (ev):

    -2.4912   0.0519   3.3842   3.5860   7.8161   8.3212  14.2658  15.7010

          k = 0.5303-0.0589 0.6482 (  1110 PWs)   bands (ev):

    -1.8336  -0.6132   2.7174   3.5413   8.1088   9.2720  13.9303  15.4792

          k = 0.4714-0.0000 0.5893 (  1108 PWs)   bands (ev):

    -1.6620  -0.7379   2.1916   3.7472   8.3558  10.8426  13.4610  13.8501

          k =-0.1179-0.7071 0.0000 (  1118 PWs)   bands (ev):

    -1.2752  -1.2752   3.3461   3.3461   7.9102   7.9102  15.7870  15.7870

          k = 0.4714-0.2357 0.7071 (  1105 PWs)   bands (ev):

    -3.2373   0.9245   2.9149   4.2437   9.5125  10.3366  11.0010  13.8725

          k = 0.4125-0.1768 0.6482 (  1110 PWs)   bands (ev):

    -2.5839   0.1229   2.5575   3.8879   9.8774  10.4500  11.4896  14.2997

          k = 0.3536-0.1179 0.5893 (  1110 PWs)   bands (ev):

    -2.2022  -0.3316   2.4650   3.7511   9.9773  10.2785  12.8258  13.3254

          k = 0.4714-0.1179 0.7071 (  1106 PWs)   bands (ev):

    -2.2638  -0.0949   2.7043   3.3438   9.3275   9.7177  12.1509  15.1552

          k = 0.4125-0.0589 0.6482 (  1107 PWs)   bands (ev):

    -1.7135  -0.6212   2.3687   3.1830   9.6677  10.9443  11.8821  13.2819

          k = 0.3536 0.0000 0.5893 (  1108 PWs)   bands (ev):

    -1.9538  -0.3853   2.2382   3.4194   9.9744  11.1617  11.7448  13.0246

          k =-0.2357-0.7071 0.0000 (  1098 PWs)   bands (ev):

    -1.1838  -1.1838   2.8281   2.8281   9.3849   9.3849  13.5591  13.5591

          k =-0.3536-0.7071 0.0000 (  1124 PWs)   bands (ev):

    -1.1341  -1.1341   2.6065   2.6065  10.9087  10.9087  11.7888  11.7888

     the Fermi energy is     6.8791 ev

!    total energy              =     -19.19007982 Ry
     Harris-Foulkes estimate   =     -19.19007981 Ry
     estimated scf accuracy    <          4.6E-09 Ry

     The total energy is the sum of the following terms:

     one-electron contribution =       5.43526656 Ry
     hartree contribution      =       1.07943509 Ry
     xc contribution           =      -8.67174458 Ry
     ewald contribution        =     -17.03303687 Ry
     smearing contrib. (-TS)   =      -0.00000002 Ry

     convergence has been achieved in   5 iterations

     Forces acting on atoms (cartesian axes, Ry/au):

     atom    1 type  1   force =    -0.00000000   -0.00000000   -0.00000000
     atom    2 type  1   force =     0.00000000    0.00000000    0.00000000

     Total force =     0.000000     Total SCF correction =     0.000000

     BFGS Geometry Optimization

     bfgs converged in   1 scf cycles and   0 bfgs steps
     (criteria: energy <  1.0E-05 Ry, force <  1.0E-03 Ry/Bohr)

     End of BFGS Geometry Optimization

     Final energy   =     -19.1900798186 Ry
Begin final coordinates

ATOMIC_POSITIONS (crystal)
Si       0.000000000   0.000000000   0.000000000
Si       0.250000000   0.250000000   0.250000000
End final coordinates



     Writing output data file Si.diamond.relax.save/
 
     init_run     :      0.20s CPU      0.21s WALL (       1 calls)
     electrons    :      2.25s CPU      2.38s WALL (       1 calls)
     forces       :      0.03s CPU      0.03s WALL (       1 calls)

     Called by init_run:
     wfcinit      :      0.12s CPU      0.12s WALL (       1 calls)
     potinit      :      0.01s CPU      0.01s WALL (       1 calls)
     hinit0       :      0.06s CPU      0.06s WALL (       1 calls)

     Called by electrons:
     c_bands      :      1.88s CPU      1.98s WALL (       6 calls)
     sum_band     :      0.32s CPU      0.35s WALL (       6 calls)
     v_of_rho     :      0.02s CPU      0.02s WALL (       6 calls)
     newd         :      0.03s CPU      0.04s WALL (       6 calls)
     mix_rho      :      0.00s CPU      0.00s WALL (       6 calls)

     Called by c_bands:
     init_us_2    :      0.07s CPU      0.08s WALL (    1008 calls)
     cegterg      :      1.54s CPU      1.63s WALL (     432 calls)

     Called by sum_band:
     sum_band:bec :      0.00s CPU      0.00s WALL (     432 calls)
     addusdens    :      0.04s CPU      0.05s WALL (       6 calls)

     Called by *egterg:
     h_psi        :      1.33s CPU      1.40s WALL (    1501 calls)
     s_psi        :      0.04s CPU      0.04s WALL (    1501 calls)
     g_psi        :      0.01s CPU      0.01s WALL (     997 calls)
     cdiaghg      :      0.14s CPU      0.15s WALL (    1357 calls)

     Called by h_psi:
     h_psi:pot    :      1.32s CPU      1.40s WALL (    1501 calls)
     h_psi:calbec :      0.07s CPU      0.07s WALL (    1501 calls)
     vloc_psi     :      1.21s CPU      1.28s WALL (    1501 calls)
     add_vuspsi   :      0.04s CPU      0.04s WALL (    1501 calls)

     General routines
     calbec       :      0.09s CPU      0.09s WALL (    2221 calls)
     fft          :      0.02s CPU      0.02s WALL (      89 calls)
     ffts         :      0.00s CPU      0.00s WALL (      12 calls)
     fftw         :      1.29s CPU      1.36s WALL (   22396 calls)
     interpolate  :      0.00s CPU      0.00s WALL (       6 calls)
 
     Parallel routines
     fft_scatt_xy :      0.18s CPU      0.19s WALL (   22497 calls)
     fft_scatt_yz :      0.53s CPU      0.56s WALL (   22497 calls)
 
     PWSCF        :     2.55s CPU         2.73s WALL

 
   This run was terminated on:  11:28:22  14Jun2019            

=------------------------------------------------------------------------------=
   JOB DONE.
=------------------------------------------------------------------------------=
