===== VARIABLES =====
EXE_PATH = /scr/szymansk/2019-3/qe-bin/bin/pw.x
tpp = 4
Parallel keywords = -nimage 1
MPIRUN_EXE = orterun
PATH = /scr/szymansk/2019-3/mmshare-v4.7/lib/Linux-x86_64/openmpi/bin:/scr/szymansk/2019-3/internal/bin:/scr/szymansk/2019-3/mmshare-v4.7/bin/Linux-x86_64:/home/szymansk/bin:/scr/szymansk/dakota/bin:/scr/szymansk/atompaw-4.1.0.5/src/:/usr/lib64/qt-3.3/bin:/usr/local/bin:/usr/local/sbin:/usr/bin:/usr/sbin:/bin:/sbin
LD_LIBRARY_PATH = /scr/szymansk/2019-3/mmshare-v4.7/lib/Linux-x86_64/openmpi/lib:/scr/szymansk/2019-3/internal/lib/ssl:/scr/szymansk/2019-3/internal/lib:/scr/szymansk/2019-3/mmshare-v4.7/lib/Linux-x86_64:/scr/szymansk/2019-3/internal/lib/python3.6/site-packages:/scr/szymansk/dakota/bin:/software/lib/Linux-x86_64/ifort_2017.1.132/mkl/lib/intel64
===== END VARIABLES =====
Invoking: exe_cmd () 
{ 
    "$MPIRUN_EXE" -np $tpp "$EXE_PATH" -in $input_file "${P_KEYWORDS[@]}"
}

     Program PWSCF v.6.3MaX starts on 14Jun2019 at 11:28:52 

     This program is part of the open-source Quantum ESPRESSO suite
     for quantum simulation of materials; please cite
         "P. Giannozzi et al., J. Phys.:Condens. Matter 21 395502 (2009);
         "P. Giannozzi et al., J. Phys.:Condens. Matter 29 465901 (2017);
          URL http://www.quantum-espresso.org", 
     in publications or presentations arising from this work. More details at
     http://www.quantum-espresso.org/quote

     Parallel version (MPI), running on     4 processors

     MPI processes distributed on     1 nodes
     R & G space division:  proc/nbgrp/npool/nimage =       4
     Reading input from Si.diamond.relax.in
Warning: card &CELL ignored
Warning: card   CELL_DYNAMICS='BFGS' ignored
Warning: card / ignored

     Current dimensions of program PWSCF are:
     Max number of different atomic species (ntypx) = 10
     Max number of k-points (npk) =  40000
     Max angular momentum in pseudopotentials (lmaxx) =  3

     Subspace diagonalization in iterative solution of the eigenvalue problem:
     a serial algorithm will be used

 
     Parallelization info
     --------------------
     sticks:   dense  smooth     PW     G-vecs:    dense   smooth      PW
     Min         188     148     49                 3432     2458     451
     Max         190     149     50                 3433     2462     453
     Sum         757     595    199                13731     9841    1807
 


     bravais-lattice index     =            0
     lattice parameter (alat)  =       7.4013  a.u.
     unit-cell volume          =     286.6891 (a.u.)^3
     number of atoms/cell      =            2
     number of atomic types    =            1
     number of electrons       =         8.00
     number of Kohn-Sham states=            8
     kinetic-energy cutoff     =      40.0000  Ry
     charge density cutoff     =     200.0000  Ry
     convergence threshold     =      1.0E-08
     mixing beta               =       0.7000
     number of iterations used =            8  plain     mixing
     Exchange-correlation      = SLA  PW   PBE  PBE ( 1  4  3  4 0 0)
     nstep                     =           50


     celldm(1)=   7.401313  celldm(2)=   0.000000  celldm(3)=   0.000000
     celldm(4)=   0.000000  celldm(5)=   0.000000  celldm(6)=   0.000000

     crystal axes: (cart. coord. in units of alat)
               a(1) = (  -0.707107   0.000000   0.707107 )  
               a(2) = (   0.000000   0.707107   0.707107 )  
               a(3) = (  -0.707107   0.707107   0.000000 )  

     reciprocal axes: (cart. coord. in units 2 pi/alat)
               b(1) = ( -0.707107 -0.707107  0.707107 )  
               b(2) = (  0.707107  0.707107  0.707107 )  
               b(3) = ( -0.707107  0.707107 -0.707107 )  


     PseudoPot. # 1 for Si read from file:
     ./Si.GGA-PBE-paw.UPF
     MD5 check sum: a056efeee980c13900f22a371efd63c1
     Pseudo is Ultrasoft + core correction, Zval =  4.0
     Generated by new atomic code, or converted to UPF format
     Using radial grid of  899 points,  6 beta functions with: 
                l(1) =   0
                l(2) =   0
                l(3) =   1
                l(4) =   1
                l(5) =   2
                l(6) =   2
     Q(r) pseudized with  8 coefficients,  rinner =    0.900   0.900   0.900
                                                       0.900   0.900

     atomic species   valence    mass     pseudopotential
        Si             4.00    28.08550     Si( 1.00)

     48 Sym. Ops., with inversion, found (24 have fractional translation)



   Cartesian axes

     site n.     atom                  positions (alat units)
         1           Si  tau(   1) = (   0.0000000   0.0000000   0.0000000  )
         2           Si  tau(   2) = (  -0.3535534   0.3535534   0.3535534  )

     number of k points=    72  Fermi-Dirac smearing, width (Ry)=  0.0020
                       cart. coord. in units 2pi/alat
        k(    1) = (   0.0000000   0.0000000   0.0000000), wk =   0.0011574
        k(    2) = (  -0.0589256   0.0589256  -0.0589256), wk =   0.0092593
        k(    3) = (  -0.1178511   0.1178511  -0.1178511), wk =   0.0092593
        k(    4) = (  -0.1767767   0.1767767  -0.1767767), wk =   0.0092593
        k(    5) = (  -0.2357023   0.2357023  -0.2357023), wk =   0.0092593
        k(    6) = (  -0.2946278   0.2946278  -0.2946278), wk =   0.0092593
        k(    7) = (   0.3535534  -0.3535534   0.3535534), wk =   0.0046296
        k(    8) = (   0.0000000   0.1178511   0.0000000), wk =   0.0069444
        k(    9) = (  -0.0589256   0.1767767  -0.0589256), wk =   0.0277778
        k(   10) = (  -0.1178511   0.2357023  -0.1178511), wk =   0.0277778
        k(   11) = (  -0.1767767   0.2946278  -0.1767767), wk =   0.0277778
        k(   12) = (  -0.2357023   0.3535534  -0.2357023), wk =   0.0277778
        k(   13) = (   0.4124790  -0.2946278   0.4124790), wk =   0.0277778
        k(   14) = (   0.3535534  -0.2357023   0.3535534), wk =   0.0277778
        k(   15) = (   0.2946278  -0.1767767   0.2946278), wk =   0.0277778
        k(   16) = (   0.2357023  -0.1178511   0.2357023), wk =   0.0277778
        k(   17) = (   0.1767767  -0.0589256   0.1767767), wk =   0.0277778
        k(   18) = (   0.1178511  -0.0000000   0.1178511), wk =   0.0138889
        k(   19) = (   0.0000000   0.2357023   0.0000000), wk =   0.0069444
        k(   20) = (  -0.0589256   0.2946278  -0.0589256), wk =   0.0277778
        k(   21) = (  -0.1178511   0.3535534  -0.1178511), wk =   0.0277778
        k(   22) = (  -0.1767767   0.4124790  -0.1767767), wk =   0.0277778
        k(   23) = (   0.4714045  -0.2357023   0.4714045), wk =   0.0277778
        k(   24) = (   0.4124790  -0.1767767   0.4124790), wk =   0.0277778
        k(   25) = (   0.3535534  -0.1178511   0.3535534), wk =   0.0277778
        k(   26) = (   0.2946278  -0.0589256   0.2946278), wk =   0.0277778
        k(   27) = (   0.2357023   0.0000000   0.2357023), wk =   0.0138889
        k(   28) = (   0.0000000   0.3535534   0.0000000), wk =   0.0069444
        k(   29) = (  -0.0589256   0.4124790  -0.0589256), wk =   0.0277778
        k(   30) = (  -0.1178511   0.4714045  -0.1178511), wk =   0.0277778
        k(   31) = (   0.5303301  -0.1767767   0.5303301), wk =   0.0277778
        k(   32) = (   0.4714045  -0.1178511   0.4714045), wk =   0.0277778
        k(   33) = (   0.4124790  -0.0589256   0.4124790), wk =   0.0277778
        k(   34) = (   0.3535534   0.0000000   0.3535534), wk =   0.0138889
        k(   35) = (   0.0000000   0.4714045   0.0000000), wk =   0.0069444
        k(   36) = (  -0.0589256   0.5303301  -0.0589256), wk =   0.0277778
        k(   37) = (   0.5892557  -0.1178511   0.5892557), wk =   0.0277778
        k(   38) = (   0.5303301  -0.0589256   0.5303301), wk =   0.0277778
        k(   39) = (   0.4714045  -0.0000000   0.4714045), wk =   0.0138889
        k(   40) = (   0.0000000   0.5892557   0.0000000), wk =   0.0069444
        k(   41) = (   0.6481812  -0.0589256   0.6481812), wk =   0.0277778
        k(   42) = (   0.5892557   0.0000000   0.5892557), wk =   0.0138889
        k(   43) = (   0.0000000  -0.7071068   0.0000000), wk =   0.0034722
        k(   44) = (  -0.1178511   0.2357023  -0.0000000), wk =   0.0277778
        k(   45) = (  -0.1767767   0.2946278  -0.0589256), wk =   0.0555556
        k(   46) = (  -0.2357023   0.3535534  -0.1178511), wk =   0.0555556
        k(   47) = (   0.4124790  -0.2946278   0.5303301), wk =   0.0555556
        k(   48) = (   0.3535534  -0.2357023   0.4714045), wk =   0.0277778
        k(   49) = (  -0.1178511   0.3535534   0.0000000), wk =   0.0277778
        k(   50) = (  -0.1767767   0.4124790  -0.0589256), wk =   0.0555556
        k(   51) = (   0.4714045  -0.2357023   0.5892557), wk =   0.0555556
        k(   52) = (   0.4124790  -0.1767767   0.5303301), wk =   0.0555556
        k(   53) = (   0.3535534  -0.1178511   0.4714045), wk =   0.0555556
        k(   54) = (   0.2946278  -0.0589256   0.4124790), wk =   0.0555556
        k(   55) = (   0.2357023   0.0000000   0.3535534), wk =   0.0277778
        k(   56) = (  -0.1178511   0.4714045   0.0000000), wk =   0.0277778
        k(   57) = (   0.5303301  -0.1767767   0.6481812), wk =   0.0555556
        k(   58) = (   0.4714045  -0.1178511   0.5892557), wk =   0.0555556
        k(   59) = (   0.4124790  -0.0589256   0.5303301), wk =   0.0555556
        k(   60) = (   0.3535534  -0.0000000   0.4714045), wk =   0.0277778
        k(   61) = (   0.5892557  -0.1178511   0.7071068), wk =   0.0277778
        k(   62) = (   0.5303301  -0.0589256   0.6481812), wk =   0.0555556
        k(   63) = (   0.4714045  -0.0000000   0.5892557), wk =   0.0277778
        k(   64) = (  -0.1178511  -0.7071068   0.0000000), wk =   0.0138889
        k(   65) = (   0.4714045  -0.2357023   0.7071068), wk =   0.0277778
        k(   66) = (   0.4124790  -0.1767767   0.6481812), wk =   0.0555556
        k(   67) = (   0.3535534  -0.1178511   0.5892557), wk =   0.0277778
        k(   68) = (   0.4714045  -0.1178511   0.7071068), wk =   0.0277778
        k(   69) = (   0.4124790  -0.0589256   0.6481812), wk =   0.0555556
        k(   70) = (   0.3535534   0.0000000   0.5892557), wk =   0.0277778
        k(   71) = (  -0.2357023  -0.7071068   0.0000000), wk =   0.0138889
        k(   72) = (  -0.3535534  -0.7071068   0.0000000), wk =   0.0069444

     Dense  grid:    13731 G-vectors     FFT dimensions: (  36,  36,  36)

     Smooth grid:     9841 G-vectors     FFT dimensions: (  30,  30,  30)

     Estimated max dynamical RAM per process >      16.44 MB

     Estimated total dynamical RAM >      65.76 MB

     Initial potential from superposition of free atoms

     starting charge    7.99866, renormalised to    8.00000
     Starting wfcs are    8 randomized atomic wfcs

     total cpu time spent up to now is        0.3 secs

     Self-consistent Calculation

     iteration #  1     ecut=    40.00 Ry     beta= 0.70
     Davidson diagonalization with overlap
     ethr =  1.00E-02,  avg # of iterations =  3.5

     Threshold (ethr) on eigenvalues was too large:
     Diagonalizing with lowered threshold

     Davidson diagonalization with overlap
     ethr =  6.47E-04,  avg # of iterations =  1.2

     total cpu time spent up to now is        1.2 secs

     total energy              =     -19.19020238 Ry
     Harris-Foulkes estimate   =     -19.20141455 Ry
     estimated scf accuracy    <       0.05107145 Ry

     iteration #  2     ecut=    40.00 Ry     beta= 0.70
     Davidson diagonalization with overlap
     ethr =  6.38E-04,  avg # of iterations =  1.0

     total cpu time spent up to now is        1.5 secs

     total energy              =     -19.19207869 Ry
     Harris-Foulkes estimate   =     -19.19219647 Ry
     estimated scf accuracy    <       0.00217250 Ry

     iteration #  3     ecut=    40.00 Ry     beta= 0.70
     Davidson diagonalization with overlap
     ethr =  2.72E-05,  avg # of iterations =  2.5

     total cpu time spent up to now is        1.9 secs

     total energy              =     -19.19222677 Ry
     Harris-Foulkes estimate   =     -19.19222097 Ry
     estimated scf accuracy    <       0.00003351 Ry

     iteration #  4     ecut=    40.00 Ry     beta= 0.70
     Davidson diagonalization with overlap
     ethr =  4.19E-07,  avg # of iterations =  3.0

     total cpu time spent up to now is        2.4 secs

     total energy              =     -19.19225521 Ry
     Harris-Foulkes estimate   =     -19.19225508 Ry
     estimated scf accuracy    <       0.00000009 Ry

     iteration #  5     ecut=    40.00 Ry     beta= 0.70
     Davidson diagonalization with overlap
     ethr =  1.11E-09,  avg # of iterations =  2.8

     total cpu time spent up to now is        2.9 secs

     End of self-consistent calculation

          k = 0.0000 0.0000 0.0000 (  1243 PWs)   bands (ev):

    -5.9711   5.5902   5.5902   5.5902   8.1306   8.1306   8.1306   8.2855

          k =-0.0589 0.0589-0.0589 (  1242 PWs)   bands (ev):

    -5.8847   4.7272   5.4555   5.4555   8.0442   8.3291   8.3291   9.0940

          k =-0.1179 0.1179-0.1179 (  1230 PWs)   bands (ev):

    -5.6283   3.2488   5.1649   5.1649   7.7413   8.7456   8.7456  10.5531

          k =-0.1768 0.1768-0.1768 (  1227 PWs)   bands (ev):

    -5.2131   1.7663   4.8687   4.8687   7.4132   9.0490   9.0490  12.0281

          k =-0.2357 0.2357-0.2357 (  1236 PWs)   bands (ev):

    -4.6694   0.4257   4.6363   4.6363   7.1472   9.0853   9.0853  13.1868

          k =-0.2946 0.2946-0.2946 (  1215 PWs)   bands (ev):

    -4.0915  -0.6404   4.4924   4.4924   6.9792   9.0012   9.0012  13.3033

          k = 0.3536-0.3536 0.3536 (  1224 PWs)   bands (ev):

    -3.7866  -1.1095   4.4439   4.4439   6.9221   8.9565   8.9565  13.2409

          k = 0.0000 0.1179 0.0000 (  1239 PWs)   bands (ev):

    -5.8557   4.8452   5.1911   5.1911   7.8713   8.6719   8.6719   8.9864

          k =-0.0589 0.1768-0.0589 (  1236 PWs)   bands (ev):

    -5.6555   3.6645   4.8477   5.0042   7.8817   8.6137   9.1833  10.0988

          k =-0.1179 0.2357-0.1179 (  1233 PWs)   bands (ev):

    -5.2916   2.2291   4.5483   4.6913   7.9192   8.6687   9.5671  10.8559

          k =-0.1768 0.2946-0.1768 (  1234 PWs)   bands (ev):

    -4.7855   0.8617   4.3449   4.3522   7.7221   8.8364   9.6241  11.4601

          k =-0.2357 0.3536-0.2357 (  1219 PWs)   bands (ev):

    -4.1997  -0.3020   4.0694   4.2552   7.5422   8.8520   9.4659  12.4576

          k = 0.4125-0.2946 0.4125 (  1214 PWs)   bands (ev):

    -3.7487  -1.0197   3.8762   4.2806   7.4535   8.8728   9.2882  13.3554

          k = 0.3536-0.2357 0.3536 (  1216 PWs)   bands (ev):

    -3.8587  -0.8554   3.7900   4.4138   7.4724   8.9873   9.1816  13.4606

          k = 0.2946-0.1768 0.2946 (  1223 PWs)   bands (ev):

    -4.3974   0.0565   3.8227   4.6401   7.5984   9.1342   9.1747  12.8323

          k = 0.2357-0.1179 0.2357 (  1232 PWs)   bands (ev):

    -4.9687   1.3029   3.9832   4.9346   7.8197   9.0242   9.2856  11.8362

          k = 0.1768-0.0589 0.1768 (  1236 PWs)   bands (ev):

    -5.4310   2.6920   4.2832   5.2480   8.1028   8.7145   9.0340  10.9679

          k = 0.1179-0.0000 0.1179 (  1235 PWs)   bands (ev):

    -5.7414   3.9921   4.7873   5.4734   8.3054   8.3698   8.5001   9.9589

          k = 0.0000 0.2357 0.0000 (  1239 PWs)   bands (ev):

    -5.5114   3.4973   4.4722   4.4722   7.3190   9.5990   9.8108   9.8108

          k =-0.0589 0.2946-0.0589 (  1234 PWs)   bands (ev):

    -5.2011   2.4703   4.1248   4.1539   7.3358   9.3134  10.1875  10.3551

          k =-0.1179 0.3536-0.1179 (  1239 PWs)   bands (ev):

    -4.7393   1.2353   3.6841   3.9437   7.5619   9.4577  10.0759  10.5463

          k =-0.1768 0.4125-0.1768 (  1230 PWs)   bands (ev):

    -4.1678   0.0725   3.2623   3.8606   7.6001   9.6510  10.4067  10.5736

          k = 0.4714-0.2357 0.4714 (  1219 PWs)   bands (ev):

    -3.6271  -0.7996   2.9353   3.9082   7.6176   9.5533  10.1630  11.8544

          k = 0.4125-0.1768 0.4125 (  1217 PWs)   bands (ev):

    -3.5234  -0.9460   2.7370   4.0796   7.7343   9.5293   9.9482  13.3358

          k = 0.3536-0.1179 0.3536 (  1224 PWs)   bands (ev):

    -3.9836  -0.2408   2.6934   4.3565   7.9575   9.6043   9.7736  12.5999

          k = 0.2946-0.0589 0.2946 (  1226 PWs)   bands (ev):

    -4.5687   0.8355   2.8474   4.7030   8.2392   9.5228   9.6694  11.4689

          k = 0.2357 0.0000 0.2357 (  1239 PWs)   bands (ev):

    -5.0709   1.9185   3.3271   5.0461   8.4412   9.0840   9.3370  11.0154

          k = 0.0000 0.3536 0.0000 (  1243 PWs)   bands (ev):

    -4.9439   2.0593   3.8104   3.8104   6.7781   8.7198  11.1564  11.1564

          k =-0.0589 0.4125-0.0589 (  1239 PWs)   bands (ev):

    -4.5302   1.1941   3.3690   3.5750   6.8597   8.3977  11.4006  11.6352

          k =-0.1179 0.4714-0.1179 (  1231 PWs)   bands (ev):

    -3.9873   0.2253   2.7698   3.4711   7.0805   8.8362  11.2431  11.6331

          k = 0.5303-0.1768 0.5303 (  1225 PWs)   bands (ev):

    -3.4046  -0.6390   2.2505   3.5055   7.1684   9.9887  11.0592  11.3898

          k = 0.4714-0.1179 0.4714 (  1227 PWs)   bands (ev):

    -3.1094  -1.0184   1.9092   3.6741   7.3316  10.8954  11.1067  11.5316

          k = 0.4125-0.0589 0.4125 (  1219 PWs)   bands (ev):

    -3.4570  -0.5619   1.8062   3.9607   7.6241  10.7955  10.8504  12.4809

          k = 0.3536 0.0000 0.3536 (  1211 PWs)   bands (ev):

    -4.0388   0.2132   2.0641   4.3293   7.9981  10.2607  10.5861  11.4346

          k = 0.0000 0.4714 0.0000 (  1218 PWs)   bands (ev):

    -4.1638   0.6269   3.3077   3.3077   6.4037   7.6618  12.5955  12.5955

          k =-0.0589 0.5303-0.0589 (  1228 PWs)   bands (ev):

    -3.6577  -0.1221   2.8568   3.1711   6.5644   7.5267  12.8727  12.9770

          k = 0.5893-0.1179 0.5893 (  1220 PWs)   bands (ev):

    -3.0664  -0.8514   2.1818   3.1756   6.7442   8.3208  12.7450  12.8331

          k = 0.5303-0.0589 0.5303 (  1226 PWs)   bands (ev):

    -2.6358  -1.3076   1.6441   3.3202   6.9108   9.7068  12.4907  12.5811

          k = 0.4714-0.0000 0.4714 (  1220 PWs)   bands (ev):

    -2.8957  -1.0316   1.4553   3.5922   7.2123  11.3258  11.8666  12.3692

          k = 0.0000 0.5893 0.0000 (  1226 PWs)   bands (ev):

    -3.1876  -0.7544   2.9975   2.9975   6.2688   6.8766  14.0786  14.0786

          k = 0.6482-0.0589 0.6482 (  1215 PWs)   bands (ev):

    -2.6076  -1.4091   2.6017   2.9649   6.4710   7.0143  14.3270  14.3707

          k = 0.5893 0.0000 0.5893 (  1228 PWs)   bands (ev):

    -2.1890  -1.7869   1.9856   3.0754   6.6249   8.1496  13.7906  14.1751

          k = 0.0000-0.7071 0.0000 (  1234 PWs)   bands (ev):

    -2.0399  -2.0399   2.8929   2.8929   6.4164   6.4164  15.1975  15.1975

          k =-0.1179 0.2357-0.0000 (  1245 PWs)   bands (ev):

    -5.4005   2.8695   4.0608   4.9097   7.9154   8.8931   9.6337  10.3735

          k =-0.1768 0.2946-0.0589 (  1233 PWs)   bands (ev):

    -4.9874   1.6887   3.5434   4.6511   8.1576   8.9114  10.0387  10.4452

          k =-0.2357 0.3536-0.1179 (  1229 PWs)   bands (ev):

    -4.4452   0.4596   3.2709   4.3451   8.1375   8.9186  10.1063  11.0523

          k = 0.4125-0.2946 0.5303 (  1221 PWs)   bands (ev):

    -3.8655  -0.5638   3.1384   4.1163   8.0470   8.8081  10.0437  12.1960

          k = 0.3536-0.2357 0.4714 (  1224 PWs)   bands (ev):

    -3.5561  -1.0249   3.1001   4.0317   8.0115   8.7500  10.0047  13.4213

          k =-0.1179 0.3536 0.0000 (  1238 PWs)   bands (ev):

    -4.8398   1.6936   3.4011   4.0486   7.4001   9.0595  10.2682  11.0453

          k =-0.1768 0.4125-0.0589 (  1231 PWs)   bands (ev):

    -4.3366   0.6989   2.8831   3.7819   7.7217   9.2862  10.0141  11.4281

          k = 0.4714-0.2357 0.5893 (  1227 PWs)   bands (ev):

    -3.7501  -0.2879   2.5313   3.5879   7.8404   9.7004  10.2852  11.4237

          k = 0.4125-0.1768 0.5303 (  1219 PWs)   bands (ev):

    -3.2922  -0.9411   2.2943   3.5711   7.9550   9.4445  11.3069  11.7143

          k = 0.3536-0.1179 0.4714 (  1221 PWs)   bands (ev):

    -3.4171  -0.7682   2.1886   3.7314   8.1760   9.2771  11.2146  12.1150

          k = 0.2946-0.0589 0.4125 (  1223 PWs)   bands (ev):

    -3.9656   0.0469   2.2739   4.0265   8.4884   9.1500  10.7337  11.2269

          k = 0.2357 0.0000 0.3536 (  1221 PWs)   bands (ev):

    -4.5325   0.9724   2.6787   4.3819   8.7530   8.8029  10.2114  10.7684

          k =-0.1179 0.4714 0.0000 (  1229 PWs)   bands (ev):

    -4.0717   0.4634   2.9173   3.3195   7.0301   8.1158  11.4369  12.5492

          k = 0.5303-0.1768 0.6482 (  1226 PWs)   bands (ev):

    -3.5011  -0.3303   2.3665   3.1184   7.3613   8.6058  11.1556  12.9045

          k = 0.4714-0.1179 0.5893 (  1219 PWs)   bands (ev):

    -2.9530  -0.9981   1.8778   3.1247   7.5117   9.8518  10.8691  12.8232

          k = 0.4125-0.0589 0.5303 (  1220 PWs)   bands (ev):

    -2.8918  -1.0599   1.6104   3.3100   7.7498  10.5504  11.4859  12.0854

          k = 0.3536-0.0000 0.4714 (  1220 PWs)   bands (ev):

    -3.3929  -0.5030   1.6942   3.6331   8.1080  10.1354  10.9469  12.2414

          k = 0.5893-0.1179 0.7071 (  1223 PWs)   bands (ev):

    -3.1167  -0.7921   2.6488   2.8368   6.8793   7.3983  12.7673  14.0662

          k = 0.5303-0.0589 0.6482 (  1219 PWs)   bands (ev):

    -2.5267  -1.4042   2.0720   2.7945   7.1689   8.2443  12.4698  13.8445

          k = 0.4714-0.0000 0.5893 (  1212 PWs)   bands (ev):

    -2.3937  -1.5031   1.6118   2.9797   7.3920   9.7150  12.0287  12.4085

          k =-0.1179-0.7071 0.0000 (  1210 PWs)   bands (ev):

    -2.0073  -2.0073   2.6167   2.6167   6.9915   6.9915  14.1601  14.1601

          k = 0.4714-0.2357 0.7071 (  1222 PWs)   bands (ev):

    -3.8045   0.0366   2.2357   3.4334   8.4193   9.3029   9.6733  12.4200

          k = 0.4125-0.1768 0.6482 (  1216 PWs)   bands (ev):

    -3.2202  -0.6908   1.9044   3.1218   8.7945   9.2957  10.2224  12.8346

          k = 0.3536-0.1179 0.5893 (  1226 PWs)   bands (ev):

    -2.8878  -1.0872   1.8119   3.0021   8.9750   9.0289  11.5651  11.8766

          k = 0.4714-0.1179 0.7071 (  1221 PWs)   bands (ev):

    -2.9210  -0.9320   2.0527   2.6406   8.2678   8.6840  10.8007  13.5900

          k = 0.4125-0.0589 0.6482 (  1220 PWs)   bands (ev):

    -2.4341  -1.4118   1.7641   2.4957   8.6068   9.8522  10.5177  11.8825

          k = 0.3536 0.0000 0.5893 (  1218 PWs)   bands (ev):

    -2.6537  -1.1904   1.6471   2.7054   8.8974   9.9991  10.4478  11.6403

          k =-0.2357-0.7071 0.0000 (  1220 PWs)   bands (ev):

    -1.9381  -1.9381   2.1747   2.1747   8.3455   8.3455  12.1363  12.1363

          k =-0.3536-0.7071 0.0000 (  1216 PWs)   bands (ev):

    -1.9012  -1.9012   1.9855   1.9855   9.8682   9.8682  10.3838  10.3838

     the Fermi energy is     5.9211 ev

!    total energy              =     -19.19225529 Ry
     Harris-Foulkes estimate   =     -19.19225528 Ry
     estimated scf accuracy    <          4.5E-09 Ry

     The total energy is the sum of the following terms:

     one-electron contribution =       4.66002188 Ry
     hartree contribution      =       1.16820143 Ry
     xc contribution           =      -8.55186938 Ry
     ewald contribution        =     -16.46860922 Ry
     smearing contrib. (-TS)   =      -0.00000000 Ry

     convergence has been achieved in   5 iterations

     Forces acting on atoms (cartesian axes, Ry/au):

     atom    1 type  1   force =     0.00000000    0.00000000    0.00000000
     atom    2 type  1   force =     0.00000000    0.00000000    0.00000000

     Total force =     0.000000     Total SCF correction =     0.000000

     BFGS Geometry Optimization

     bfgs converged in   1 scf cycles and   0 bfgs steps
     (criteria: energy <  1.0E-05 Ry, force <  1.0E-03 Ry/Bohr)

     End of BFGS Geometry Optimization

     Final energy   =     -19.1922552927 Ry
Begin final coordinates

ATOMIC_POSITIONS (crystal)
Si       0.000000000   0.000000000   0.000000000
Si       0.250000000   0.250000000   0.250000000
End final coordinates



     Writing output data file Si.diamond.relax.save/
 
     init_run     :      0.22s CPU      0.24s WALL (       1 calls)
     electrons    :      2.50s CPU      2.65s WALL (       1 calls)
     forces       :      0.05s CPU      0.06s WALL (       1 calls)

     Called by init_run:
     wfcinit      :      0.13s CPU      0.14s WALL (       1 calls)
     potinit      :      0.01s CPU      0.01s WALL (       1 calls)
     hinit0       :      0.07s CPU      0.07s WALL (       1 calls)

     Called by electrons:
     c_bands      :      2.05s CPU      2.17s WALL (       6 calls)
     sum_band     :      0.39s CPU      0.41s WALL (       6 calls)
     v_of_rho     :      0.03s CPU      0.03s WALL (       6 calls)
     newd         :      0.04s CPU      0.05s WALL (       6 calls)
     mix_rho      :      0.00s CPU      0.00s WALL (       6 calls)

     Called by c_bands:
     init_us_2    :      0.09s CPU      0.09s WALL (    1008 calls)
     cegterg      :      1.67s CPU      1.77s WALL (     432 calls)

     Called by sum_band:
     sum_band:bec :      0.00s CPU      0.00s WALL (     432 calls)
     addusdens    :      0.05s CPU      0.05s WALL (       6 calls)

     Called by *egterg:
     h_psi        :      1.42s CPU      1.50s WALL (    1511 calls)
     s_psi        :      0.05s CPU      0.05s WALL (    1511 calls)
     g_psi        :      0.01s CPU      0.01s WALL (    1007 calls)
     cdiaghg      :      0.15s CPU      0.16s WALL (    1367 calls)

     Called by h_psi:
     h_psi:pot    :      1.41s CPU      1.50s WALL (    1511 calls)
     h_psi:calbec :      0.07s CPU      0.08s WALL (    1511 calls)
     vloc_psi     :      1.28s CPU      1.36s WALL (    1511 calls)
     add_vuspsi   :      0.05s CPU      0.05s WALL (    1511 calls)

     General routines
     calbec       :      0.11s CPU      0.11s WALL (    2231 calls)
     fft          :      0.02s CPU      0.02s WALL (      89 calls)
     ffts         :      0.00s CPU      0.00s WALL (      12 calls)
     fftw         :      1.38s CPU      1.46s WALL (   22370 calls)
     interpolate  :      0.00s CPU      0.00s WALL (       6 calls)
 
     Parallel routines
     fft_scatt_xy :      0.20s CPU      0.21s WALL (   22471 calls)
     fft_scatt_yz :      0.54s CPU      0.57s WALL (   22471 calls)
 
     PWSCF        :     2.86s CPU         3.09s WALL

 
   This run was terminated on:  11:28:55  14Jun2019            

=------------------------------------------------------------------------------=
   JOB DONE.
=------------------------------------------------------------------------------=
