===== VARIABLES =====
EXE_PATH = /scr/szymansk/2019-3/qe-bin/bin/pw.x
tpp = 4
Parallel keywords = -nimage 1
MPIRUN_EXE = orterun
PATH = /scr/szymansk/2019-3/mmshare-v4.7/lib/Linux-x86_64/openmpi/bin:/scr/szymansk/2019-3/internal/bin:/scr/szymansk/2019-3/mmshare-v4.7/bin/Linux-x86_64:/home/szymansk/bin:/scr/szymansk/dakota/bin:/scr/szymansk/atompaw-4.1.0.5/src/:/usr/lib64/qt-3.3/bin:/usr/local/bin:/usr/local/sbin:/usr/bin:/usr/sbin:/bin:/sbin
LD_LIBRARY_PATH = /scr/szymansk/2019-3/mmshare-v4.7/lib/Linux-x86_64/openmpi/lib:/scr/szymansk/2019-3/internal/lib/ssl:/scr/szymansk/2019-3/internal/lib:/scr/szymansk/2019-3/mmshare-v4.7/lib/Linux-x86_64:/scr/szymansk/2019-3/internal/lib/python3.6/site-packages:/scr/szymansk/dakota/bin:/software/lib/Linux-x86_64/ifort_2017.1.132/mkl/lib/intel64
===== END VARIABLES =====
Invoking: exe_cmd () 
{ 
    "$MPIRUN_EXE" -np $tpp "$EXE_PATH" -in $input_file "${P_KEYWORDS[@]}"
}

     Program PWSCF v.6.3MaX starts on 14Jun2019 at 11:28:59 

     This program is part of the open-source Quantum ESPRESSO suite
     for quantum simulation of materials; please cite
         "P. Giannozzi et al., J. Phys.:Condens. Matter 21 395502 (2009);
         "P. Giannozzi et al., J. Phys.:Condens. Matter 29 465901 (2017);
          URL http://www.quantum-espresso.org", 
     in publications or presentations arising from this work. More details at
     http://www.quantum-espresso.org/quote

     Parallel version (MPI), running on     4 processors

     MPI processes distributed on     1 nodes
     R & G space division:  proc/nbgrp/npool/nimage =       4
     Reading input from Si.diamond.relax.in
Warning: card &CELL ignored
Warning: card   CELL_DYNAMICS='BFGS' ignored
Warning: card / ignored

     Current dimensions of program PWSCF are:
     Max number of different atomic species (ntypx) = 10
     Max number of k-points (npk) =  40000
     Max angular momentum in pseudopotentials (lmaxx) =  3

     Subspace diagonalization in iterative solution of the eigenvalue problem:
     a serial algorithm will be used

 
     Parallelization info
     --------------------
     sticks:   dense  smooth     PW     G-vecs:    dense   smooth      PW
     Min         189     148     49                 3461     2458     451
     Max         190     149     50                 3464     2462     453
     Sum         757     595    199                13851     9841    1807
 


     bravais-lattice index     =            0
     lattice parameter (alat)  =       7.4485  a.u.
     unit-cell volume          =     292.2024 (a.u.)^3
     number of atoms/cell      =            2
     number of atomic types    =            1
     number of electrons       =         8.00
     number of Kohn-Sham states=            8
     kinetic-energy cutoff     =      40.0000  Ry
     charge density cutoff     =     200.0000  Ry
     convergence threshold     =      1.0E-08
     mixing beta               =       0.7000
     number of iterations used =            8  plain     mixing
     Exchange-correlation      = SLA  PW   PBE  PBE ( 1  4  3  4 0 0)
     nstep                     =           50


     celldm(1)=   7.448456  celldm(2)=   0.000000  celldm(3)=   0.000000
     celldm(4)=   0.000000  celldm(5)=   0.000000  celldm(6)=   0.000000

     crystal axes: (cart. coord. in units of alat)
               a(1) = (  -0.707107   0.000000   0.707107 )  
               a(2) = (   0.000000   0.707107   0.707107 )  
               a(3) = (  -0.707107   0.707107   0.000000 )  

     reciprocal axes: (cart. coord. in units 2 pi/alat)
               b(1) = ( -0.707107 -0.707107  0.707107 )  
               b(2) = (  0.707107  0.707107  0.707107 )  
               b(3) = ( -0.707107  0.707107 -0.707107 )  


     PseudoPot. # 1 for Si read from file:
     ./Si.GGA-PBE-paw.UPF
     MD5 check sum: a056efeee980c13900f22a371efd63c1
     Pseudo is Ultrasoft + core correction, Zval =  4.0
     Generated by new atomic code, or converted to UPF format
     Using radial grid of  899 points,  6 beta functions with: 
                l(1) =   0
                l(2) =   0
                l(3) =   1
                l(4) =   1
                l(5) =   2
                l(6) =   2
     Q(r) pseudized with  8 coefficients,  rinner =    0.900   0.900   0.900
                                                       0.900   0.900

     atomic species   valence    mass     pseudopotential
        Si             4.00    28.08550     Si( 1.00)

     48 Sym. Ops., with inversion, found (24 have fractional translation)



   Cartesian axes

     site n.     atom                  positions (alat units)
         1           Si  tau(   1) = (   0.0000000   0.0000000   0.0000000  )
         2           Si  tau(   2) = (  -0.3535534   0.3535534   0.3535534  )

     number of k points=    72  Fermi-Dirac smearing, width (Ry)=  0.0020
                       cart. coord. in units 2pi/alat
        k(    1) = (   0.0000000   0.0000000   0.0000000), wk =   0.0011574
        k(    2) = (  -0.0589256   0.0589256  -0.0589256), wk =   0.0092593
        k(    3) = (  -0.1178511   0.1178511  -0.1178511), wk =   0.0092593
        k(    4) = (  -0.1767767   0.1767767  -0.1767767), wk =   0.0092593
        k(    5) = (  -0.2357023   0.2357023  -0.2357023), wk =   0.0092593
        k(    6) = (  -0.2946278   0.2946278  -0.2946278), wk =   0.0092593
        k(    7) = (   0.3535534  -0.3535534   0.3535534), wk =   0.0046296
        k(    8) = (   0.0000000   0.1178511   0.0000000), wk =   0.0069444
        k(    9) = (  -0.0589256   0.1767767  -0.0589256), wk =   0.0277778
        k(   10) = (  -0.1178511   0.2357023  -0.1178511), wk =   0.0277778
        k(   11) = (  -0.1767767   0.2946278  -0.1767767), wk =   0.0277778
        k(   12) = (  -0.2357023   0.3535534  -0.2357023), wk =   0.0277778
        k(   13) = (   0.4124790  -0.2946278   0.4124790), wk =   0.0277778
        k(   14) = (   0.3535534  -0.2357023   0.3535534), wk =   0.0277778
        k(   15) = (   0.2946278  -0.1767767   0.2946278), wk =   0.0277778
        k(   16) = (   0.2357023  -0.1178511   0.2357023), wk =   0.0277778
        k(   17) = (   0.1767767  -0.0589256   0.1767767), wk =   0.0277778
        k(   18) = (   0.1178511  -0.0000000   0.1178511), wk =   0.0138889
        k(   19) = (   0.0000000   0.2357023   0.0000000), wk =   0.0069444
        k(   20) = (  -0.0589256   0.2946278  -0.0589256), wk =   0.0277778
        k(   21) = (  -0.1178511   0.3535534  -0.1178511), wk =   0.0277778
        k(   22) = (  -0.1767767   0.4124790  -0.1767767), wk =   0.0277778
        k(   23) = (   0.4714045  -0.2357023   0.4714045), wk =   0.0277778
        k(   24) = (   0.4124790  -0.1767767   0.4124790), wk =   0.0277778
        k(   25) = (   0.3535534  -0.1178511   0.3535534), wk =   0.0277778
        k(   26) = (   0.2946278  -0.0589256   0.2946278), wk =   0.0277778
        k(   27) = (   0.2357023   0.0000000   0.2357023), wk =   0.0138889
        k(   28) = (   0.0000000   0.3535534   0.0000000), wk =   0.0069444
        k(   29) = (  -0.0589256   0.4124790  -0.0589256), wk =   0.0277778
        k(   30) = (  -0.1178511   0.4714045  -0.1178511), wk =   0.0277778
        k(   31) = (   0.5303301  -0.1767767   0.5303301), wk =   0.0277778
        k(   32) = (   0.4714045  -0.1178511   0.4714045), wk =   0.0277778
        k(   33) = (   0.4124790  -0.0589256   0.4124790), wk =   0.0277778
        k(   34) = (   0.3535534   0.0000000   0.3535534), wk =   0.0138889
        k(   35) = (   0.0000000   0.4714045   0.0000000), wk =   0.0069444
        k(   36) = (  -0.0589256   0.5303301  -0.0589256), wk =   0.0277778
        k(   37) = (   0.5892557  -0.1178511   0.5892557), wk =   0.0277778
        k(   38) = (   0.5303301  -0.0589256   0.5303301), wk =   0.0277778
        k(   39) = (   0.4714045  -0.0000000   0.4714045), wk =   0.0138889
        k(   40) = (   0.0000000   0.5892557   0.0000000), wk =   0.0069444
        k(   41) = (   0.6481812  -0.0589256   0.6481812), wk =   0.0277778
        k(   42) = (   0.5892557   0.0000000   0.5892557), wk =   0.0138889
        k(   43) = (   0.0000000  -0.7071068   0.0000000), wk =   0.0034722
        k(   44) = (  -0.1178511   0.2357023  -0.0000000), wk =   0.0277778
        k(   45) = (  -0.1767767   0.2946278  -0.0589256), wk =   0.0555556
        k(   46) = (  -0.2357023   0.3535534  -0.1178511), wk =   0.0555556
        k(   47) = (   0.4124790  -0.2946278   0.5303301), wk =   0.0555556
        k(   48) = (   0.3535534  -0.2357023   0.4714045), wk =   0.0277778
        k(   49) = (  -0.1178511   0.3535534   0.0000000), wk =   0.0277778
        k(   50) = (  -0.1767767   0.4124790  -0.0589256), wk =   0.0555556
        k(   51) = (   0.4714045  -0.2357023   0.5892557), wk =   0.0555556
        k(   52) = (   0.4124790  -0.1767767   0.5303301), wk =   0.0555556
        k(   53) = (   0.3535534  -0.1178511   0.4714045), wk =   0.0555556
        k(   54) = (   0.2946278  -0.0589256   0.4124790), wk =   0.0555556
        k(   55) = (   0.2357023   0.0000000   0.3535534), wk =   0.0277778
        k(   56) = (  -0.1178511   0.4714045   0.0000000), wk =   0.0277778
        k(   57) = (   0.5303301  -0.1767767   0.6481812), wk =   0.0555556
        k(   58) = (   0.4714045  -0.1178511   0.5892557), wk =   0.0555556
        k(   59) = (   0.4124790  -0.0589256   0.5303301), wk =   0.0555556
        k(   60) = (   0.3535534  -0.0000000   0.4714045), wk =   0.0277778
        k(   61) = (   0.5892557  -0.1178511   0.7071068), wk =   0.0277778
        k(   62) = (   0.5303301  -0.0589256   0.6481812), wk =   0.0555556
        k(   63) = (   0.4714045  -0.0000000   0.5892557), wk =   0.0277778
        k(   64) = (  -0.1178511  -0.7071068   0.0000000), wk =   0.0138889
        k(   65) = (   0.4714045  -0.2357023   0.7071068), wk =   0.0277778
        k(   66) = (   0.4124790  -0.1767767   0.6481812), wk =   0.0555556
        k(   67) = (   0.3535534  -0.1178511   0.5892557), wk =   0.0277778
        k(   68) = (   0.4714045  -0.1178511   0.7071068), wk =   0.0277778
        k(   69) = (   0.4124790  -0.0589256   0.6481812), wk =   0.0555556
        k(   70) = (   0.3535534   0.0000000   0.5892557), wk =   0.0277778
        k(   71) = (  -0.2357023  -0.7071068   0.0000000), wk =   0.0138889
        k(   72) = (  -0.3535534  -0.7071068   0.0000000), wk =   0.0069444

     Dense  grid:    13851 G-vectors     FFT dimensions: (  36,  36,  36)

     Smooth grid:     9841 G-vectors     FFT dimensions: (  30,  30,  30)

     Estimated max dynamical RAM per process >      16.60 MB

     Estimated total dynamical RAM >      66.39 MB

     Initial potential from superposition of free atoms

     starting charge    7.99866, renormalised to    8.00000
     Starting wfcs are    8 randomized atomic wfcs

     total cpu time spent up to now is        0.2 secs

     Self-consistent Calculation

     iteration #  1     ecut=    40.00 Ry     beta= 0.70
     Davidson diagonalization with overlap
     ethr =  1.00E-02,  avg # of iterations =  3.4

     Threshold (ethr) on eigenvalues was too large:
     Diagonalizing with lowered threshold

     Davidson diagonalization with overlap
     ethr =  6.27E-04,  avg # of iterations =  1.2

     total cpu time spent up to now is        1.0 secs

     total energy              =     -19.18889441 Ry
     Harris-Foulkes estimate   =     -19.19939623 Ry
     estimated scf accuracy    <       0.04951009 Ry

     iteration #  2     ecut=    40.00 Ry     beta= 0.70
     Davidson diagonalization with overlap
     ethr =  6.19E-04,  avg # of iterations =  1.0

     total cpu time spent up to now is        1.3 secs

     total energy              =     -19.19063588 Ry
     Harris-Foulkes estimate   =     -19.19075589 Ry
     estimated scf accuracy    <       0.00218589 Ry

     iteration #  3     ecut=    40.00 Ry     beta= 0.70
     Davidson diagonalization with overlap
     ethr =  2.73E-05,  avg # of iterations =  2.6

     total cpu time spent up to now is        1.6 secs

     total energy              =     -19.19078534 Ry
     Harris-Foulkes estimate   =     -19.19078007 Ry
     estimated scf accuracy    <       0.00003125 Ry

     iteration #  4     ecut=    40.00 Ry     beta= 0.70
     Davidson diagonalization with overlap
     ethr =  3.91E-07,  avg # of iterations =  3.1

     total cpu time spent up to now is        2.0 secs

     total energy              =     -19.19081157 Ry
     Harris-Foulkes estimate   =     -19.19081143 Ry
     estimated scf accuracy    <       0.00000009 Ry

     iteration #  5     ecut=    40.00 Ry     beta= 0.70
     Davidson diagonalization with overlap
     ethr =  1.17E-09,  avg # of iterations =  2.6

     total cpu time spent up to now is        2.5 secs

     End of self-consistent calculation

          k = 0.0000 0.0000 0.0000 (  1243 PWs)   bands (ev):

    -6.0345   5.4035   5.4035   5.4035   7.8908   7.9345   7.9345   7.9345

          k =-0.0589 0.0589-0.0589 (  1249 PWs)   bands (ev):

    -5.9495   4.5359   5.2716   5.2716   7.7874   8.1290   8.1290   8.7675

          k =-0.1179 0.1179-0.1179 (  1260 PWs)   bands (ev):

    -5.6975   3.0710   4.9860   4.9860   7.4846   8.5392   8.5392  10.2223

          k =-0.1768 0.1768-0.1768 (  1257 PWs)   bands (ev):

    -5.2896   1.6087   4.6939   4.6939   7.1583   8.8444   8.8444  11.6932

          k =-0.2357 0.2357-0.2357 (  1272 PWs)   bands (ev):

    -4.7562   0.2892   4.4644   4.4644   6.8935   8.8908   8.8908  12.8969

          k =-0.2946 0.2946-0.2946 (  1251 PWs)   bands (ev):

    -4.1913  -0.7571   4.3219   4.3219   6.7261   8.8152   8.8152  13.0801

          k = 0.3536-0.3536 0.3536 (  1224 PWs)   bands (ev):

    -3.8952  -1.2152   4.2739   4.2739   6.6693   8.7735   8.7735  13.0255

          k = 0.0000 0.1179 0.0000 (  1251 PWs)   bands (ev):

    -5.9210   4.6390   5.0138   5.0138   7.6797   8.4642   8.4642   8.6133

          k =-0.0589 0.1768-0.0589 (  1269 PWs)   bands (ev):

    -5.7241   3.4744   4.6767   4.8232   7.6853   8.3531   8.9670   9.7937

          k =-0.1179 0.2357-0.1179 (  1259 PWs)   bands (ev):

    -5.3665   2.0604   4.3817   4.5135   7.6895   8.4400   9.3497  10.6134

          k =-0.1768 0.2946-0.1768 (  1252 PWs)   bands (ev):

    -4.8697   0.7150   4.1787   4.1805   7.4787   8.6321   9.4164  11.2353

          k =-0.2357 0.3536-0.2357 (  1242 PWs)   bands (ev):

    -4.2962  -0.4278   3.9001   4.0910   7.2958   8.6619   9.2693  12.2188

          k = 0.4125-0.2946 0.4125 (  1234 PWs)   bands (ev):

    -3.8572  -1.1296   3.7106   4.1148   7.2053   8.6883   9.0984  13.1143

          k = 0.3536-0.2357 0.3536 (  1240 PWs)   bands (ev):

    -3.9639  -0.9693   3.6272   4.2450   7.2222   8.8018   8.9930  13.2172

          k = 0.2946-0.1768 0.2946 (  1255 PWs)   bands (ev):

    -4.4895  -0.0761   3.6614   4.4671   7.3460   8.9408   8.9819  12.5619

          k = 0.2357-0.1179 0.2357 (  1259 PWs)   bands (ev):

    -5.0495   1.1488   3.8221   4.7568   7.5650   8.8225   9.0799  11.5571

          k = 0.1768-0.0589 0.1768 (  1253 PWs)   bands (ev):

    -5.5035   2.5157   4.1208   5.0651   7.8454   8.5108   8.8176  10.6662

          k = 0.1179-0.0000 0.1179 (  1265 PWs)   bands (ev):

    -5.8086   3.7991   4.6190   5.2872   8.0369   8.1703   8.2933   9.6439

          k = 0.0000 0.2357 0.0000 (  1267 PWs)   bands (ev):

    -5.5824   3.2907   4.3085   4.3085   7.1373   9.3012   9.5831   9.5831

          k =-0.0589 0.2946-0.0589 (  1264 PWs)   bands (ev):

    -5.2773   2.2821   3.9618   3.9953   7.1532   9.0556   9.9758  10.1211

          k =-0.1179 0.3536-0.1179 (  1260 PWs)   bands (ev):

    -4.8238   1.0709   3.5249   3.7877   7.3732   9.1943   9.8835  10.3189

          k =-0.1768 0.4125-0.1768 (  1256 PWs)   bands (ev):

    -4.2635  -0.0693   3.1084   3.7050   7.4070   9.3972  10.1914  10.3668

          k = 0.4714-0.2357 0.4714 (  1235 PWs)   bands (ev):

    -3.7358  -0.9221   2.7868   3.7508   7.4190   9.3179   9.9566  11.6170

          k = 0.4125-0.1768 0.4125 (  1238 PWs)   bands (ev):

    -3.6353  -1.0645   2.5934   3.9183   7.5264   9.3026   9.7453  13.0720

          k = 0.3536-0.1179 0.3536 (  1246 PWs)   bands (ev):

    -4.0837  -0.3758   2.5536   4.1898   7.7365   9.3838   9.5681  12.3214

          k = 0.2946-0.0589 0.2946 (  1257 PWs)   bands (ev):

    -4.6567   0.6785   2.7104   4.5295   8.0031   9.3111   9.4504  11.2010

          k = 0.2357 0.0000 0.2357 (  1255 PWs)   bands (ev):

    -5.1497   1.7433   3.1863   4.8662   8.1881   8.8744   9.1167  10.7510

          k = 0.0000 0.3536 0.0000 (  1283 PWs)   bands (ev):

    -5.0244   1.8663   3.6577   3.6577   6.6068   8.5208  10.9076  10.9076

          k =-0.0589 0.4125-0.0589 (  1260 PWs)   bands (ev):

    -4.6178   1.0152   3.2238   3.4258   6.6874   8.2110  11.1392  11.3847

          k =-0.1179 0.4714-0.1179 (  1251 PWs)   bands (ev):

    -4.0851   0.0650   2.6349   3.3230   6.9078   8.6409  10.9759  11.3941

          k = 0.5303-0.1768 0.5303 (  1240 PWs)   bands (ev):

    -3.5150  -0.7803   2.1242   3.3561   6.9949   9.7785  10.7893  11.1612

          k = 0.4714-0.1179 0.4714 (  1244 PWs)   bands (ev):

    -3.2284  -1.1492   1.7897   3.5212   7.1526  10.6488  10.8822  11.2818

          k = 0.4125-0.0589 0.4125 (  1244 PWs)   bands (ev):

    -3.5674  -0.7039   1.6915   3.8021   7.4346  10.5679  10.6027  12.2006

          k = 0.3536 0.0000 0.3536 (  1243 PWs)   bands (ev):

    -4.1369   0.0567   1.9471   4.1635   7.7916  10.0338  10.3530  11.1539

          k = 0.0000 0.4714 0.0000 (  1258 PWs)   bands (ev):

    -4.2574   0.4535   3.1628   3.1628   6.2410   7.4932  12.3250  12.3250

          k =-0.0589 0.5303-0.0589 (  1248 PWs)   bands (ev):

    -3.7602  -0.2838   2.7225   3.0281   6.4007   7.3577  12.5873  12.7087

          k = 0.5893-0.1179 0.5893 (  1242 PWs)   bands (ev):

    -3.1806  -1.0008   2.0636   3.0322   6.5816   8.1338  12.4542  12.5761

          k = 0.5303-0.0589 0.5303 (  1242 PWs)   bands (ev):

    -2.7617  -1.4463   1.5385   3.1739   6.7446   9.5003  12.2365  12.2916

          k = 0.4714-0.0000 0.4714 (  1234 PWs)   bands (ev):

    -3.0175  -1.1736   1.3537   3.4408   7.0378  11.1109  11.6139  12.0916

          k = 0.0000 0.5893 0.0000 (  1254 PWs)   bands (ev):

    -3.2979  -0.9059   2.8573   2.8573   6.1120   6.7192  13.7816  13.7816

          k = 0.6482-0.0589 0.6482 (  1250 PWs)   bands (ev):

    -2.7283  -1.5501   2.4722   2.8251   6.3140   6.8492  14.0289  14.0561

          k = 0.5893 0.0000 0.5893 (  1252 PWs)   bands (ev):

    -2.3209  -1.9198   1.8727   2.9336   6.4657   7.9640  13.4985  13.8399

          k = 0.0000-0.7071 0.0000 (  1234 PWs)   bands (ev):

    -2.1698  -2.1698   2.7543   2.7543   6.2619   6.2619  14.8528  14.8528

          k =-0.1179 0.2357-0.0000 (  1260 PWs)   bands (ev):

    -5.4735   2.6815   3.9061   4.7312   7.7224   8.6212   9.4096  10.1360

          k =-0.1768 0.2946-0.0589 (  1259 PWs)   bands (ev):

    -5.0675   1.5197   3.3937   4.4778   7.9488   8.6606   9.8136  10.2392

          k =-0.2357 0.3536-0.1179 (  1254 PWs)   bands (ev):

    -4.5356   0.3135   3.1204   4.1784   7.9068   8.7108   9.8845  10.8355

          k = 0.4125-0.2946 0.5303 (  1245 PWs)   bands (ev):

    -3.9688  -0.6891   2.9864   3.9550   7.8076   8.6239   9.8275  11.9571

          k = 0.3536-0.2357 0.4714 (  1238 PWs)   bands (ev):

    -3.6681  -1.1390   2.9473   3.8726   7.7693   8.5729   9.7906  13.1534

          k =-0.1179 0.3536 0.0000 (  1258 PWs)   bands (ev):

    -4.9222   1.5119   3.2576   3.8885   7.2170   8.8388  10.0412  10.7993

          k =-0.1768 0.4125-0.0589 (  1256 PWs)   bands (ev):

    -4.4282   0.5346   2.7460   3.6283   7.5339   9.0669   9.7913  11.1811

          k = 0.4714-0.2357 0.5893 (  1245 PWs)   bands (ev):

    -3.8537  -0.4314   2.3961   3.4393   7.6500   9.4718  10.0645  11.1828

          k = 0.4125-0.1768 0.5303 (  1242 PWs)   bands (ev):

    -3.4076  -1.0683   2.1619   3.4230   7.7593   9.2288  11.0553  11.4825

          k = 0.3536-0.1179 0.4714 (  1249 PWs)   bands (ev):

    -3.5293  -0.8998   2.0600   3.5794   7.9703   9.0697  10.9641  11.8815

          k = 0.2946-0.0589 0.4125 (  1247 PWs)   bands (ev):

    -4.0651  -0.1037   2.1484   3.8679   8.2671   8.9472  10.4953  10.9975

          k = 0.2357 0.0000 0.3536 (  1261 PWs)   bands (ev):

    -4.6209   0.8053   2.5495   4.2152   8.5481   8.5609  10.0052  10.5291

          k =-0.1179 0.4714 0.0000 (  1252 PWs)   bands (ev):

    -4.1673   0.2937   2.7819   3.1761   6.8553   7.9364  11.1799  12.2800

          k = 0.5303-0.1768 0.6482 (  1248 PWs)   bands (ev):

    -3.6077  -0.4869   2.2425   2.9798   7.1845   8.4155  10.9045  12.6306

          k = 0.4714-0.1179 0.5893 (  1242 PWs)   bands (ev):

    -3.0722  -1.1404   1.7640   2.9857   7.3332   9.6462  10.6211  12.5447

          k = 0.4125-0.0589 0.5303 (  1242 PWs)   bands (ev):

    -3.0139  -1.1995   1.5031   3.1670   7.5650  10.3272  11.2451  11.8179

          k = 0.3536-0.0000 0.4714 (  1240 PWs)   bands (ev):

    -3.5038  -0.6528   1.5858   3.4832   7.9117   9.9138  10.7083  11.9882

          k = 0.5893-0.1179 0.7071 (  1245 PWs)   bands (ev):

    -3.2289  -0.9438   2.5181   2.7033   6.7104   7.2298  12.4940  13.7659

          k = 0.5303-0.0589 0.6482 (  1244 PWs)   bands (ev):

    -2.6510  -1.5462   1.9570   2.6617   6.9984   8.0576  12.2036  13.5415

          k = 0.4714-0.0000 0.5893 (  1242 PWs)   bands (ev):

    -2.5243  -1.6408   1.5082   2.8431   7.2167   9.5090  11.7701  12.1420

          k =-0.1179-0.7071 0.0000 (  1256 PWs)   bands (ev):

    -2.1388  -2.1388   2.4870   2.4870   6.8251   6.8251  13.8597  13.8598

          k = 0.4714-0.2357 0.7071 (  1248 PWs)   bands (ev):

    -3.9061  -0.1236   2.1151   3.2890   8.2221   9.0955   9.4496  12.1552

          k = 0.4125-0.1768 0.6482 (  1241 PWs)   bands (ev):

    -3.3341  -0.8380   1.7890   2.9851   8.5934   9.0854   9.9960  12.5612

          k = 0.3536-0.1179 0.5893 (  1240 PWs)   bands (ev):

    -3.0102  -1.2246   1.6969   2.8684   8.7937   8.7995  11.3323  11.6130

          k = 0.4714-0.1179 0.7071 (  1239 PWs)   bands (ev):

    -3.0388  -1.0822   1.9368   2.5150   8.0761   8.4938  10.5574  13.2949

          k = 0.4125-0.0589 0.6482 (  1237 PWs)   bands (ev):

    -2.5628  -1.5537   1.6564   2.3730   8.4129   9.6525  10.2718  11.6283

          k = 0.3536 0.0000 0.5893 (  1241 PWs)   bands (ev):

    -2.7788  -1.3350   1.5418   2.5780   8.6989   9.7867  10.2143  11.3897

          k =-0.2357-0.7071 0.0000 (  1246 PWs)   bands (ev):

    -2.0732  -2.0732   2.0581   2.0581   8.1565   8.1565  11.8776  11.8776

          k =-0.3536-0.7071 0.0000 (  1232 PWs)   bands (ev):

    -2.0384  -2.0384   1.8745   1.8745   9.6812   9.6812  10.1270  10.1270

     the Fermi energy is     5.7493 ev

!    total energy              =     -19.19081165 Ry
     Harris-Foulkes estimate   =     -19.19081165 Ry
     estimated scf accuracy    <          4.6E-09 Ry

     The total energy is the sum of the following terms:

     one-electron contribution =       4.51850433 Ry
     hartree contribution      =       1.18534975 Ry
     xc contribution           =      -8.53029100 Ry
     ewald contribution        =     -16.36437473 Ry
     smearing contrib. (-TS)   =      -0.00000000 Ry

     convergence has been achieved in   5 iterations

     Forces acting on atoms (cartesian axes, Ry/au):

     atom    1 type  1   force =     0.00000000    0.00000000    0.00000000
     atom    2 type  1   force =    -0.00000000   -0.00000000   -0.00000000

     Total force =     0.000000     Total SCF correction =     0.000000

     BFGS Geometry Optimization

     bfgs converged in   1 scf cycles and   0 bfgs steps
     (criteria: energy <  1.0E-05 Ry, force <  1.0E-03 Ry/Bohr)

     End of BFGS Geometry Optimization

     Final energy   =     -19.1908116541 Ry
Begin final coordinates

ATOMIC_POSITIONS (crystal)
Si       0.000000000   0.000000000   0.000000000
Si       0.250000000   0.250000000   0.250000000
End final coordinates



     Writing output data file Si.diamond.relax.save/
 
     init_run     :      0.13s CPU      0.14s WALL (       1 calls)
     electrons    :      2.15s CPU      2.30s WALL (       1 calls)
     forces       :      0.06s CPU      0.06s WALL (       1 calls)

     Called by init_run:
     wfcinit      :      0.08s CPU      0.08s WALL (       1 calls)
     potinit      :      0.01s CPU      0.01s WALL (       1 calls)
     hinit0       :      0.03s CPU      0.04s WALL (       1 calls)

     Called by electrons:
     c_bands      :      1.78s CPU      1.89s WALL (       6 calls)
     sum_band     :      0.32s CPU      0.35s WALL (       6 calls)
     v_of_rho     :      0.02s CPU      0.02s WALL (       6 calls)
     newd         :      0.03s CPU      0.04s WALL (       6 calls)
     mix_rho      :      0.00s CPU      0.00s WALL (       6 calls)

     Called by c_bands:
     init_us_2    :      0.07s CPU      0.07s WALL (    1008 calls)
     cegterg      :      1.47s CPU      1.57s WALL (     432 calls)

     Called by sum_band:
     sum_band:bec :      0.00s CPU      0.00s WALL (     432 calls)
     addusdens    :      0.03s CPU      0.04s WALL (       6 calls)

     Called by *egterg:
     h_psi        :      1.23s CPU      1.31s WALL (    1504 calls)
     s_psi        :      0.03s CPU      0.04s WALL (    1504 calls)
     g_psi        :      0.01s CPU      0.01s WALL (    1000 calls)
     cdiaghg      :      0.14s CPU      0.15s WALL (    1360 calls)

     Called by h_psi:
     h_psi:pot    :      1.22s CPU      1.30s WALL (    1504 calls)
     h_psi:calbec :      0.07s CPU      0.07s WALL (    1504 calls)
     vloc_psi     :      1.11s CPU      1.18s WALL (    1504 calls)
     add_vuspsi   :      0.04s CPU      0.04s WALL (    1504 calls)

     General routines
     calbec       :      0.11s CPU      0.12s WALL (    2224 calls)
     fft          :      0.02s CPU      0.02s WALL (      89 calls)
     ffts         :      0.00s CPU      0.00s WALL (      12 calls)
     fftw         :      1.21s CPU      1.29s WALL (   22350 calls)
     interpolate  :      0.00s CPU      0.00s WALL (       6 calls)
 
     Parallel routines
     fft_scatt_xy :      0.16s CPU      0.17s WALL (   22451 calls)
     fft_scatt_yz :      0.59s CPU      0.62s WALL (   22451 calls)
 
     PWSCF        :     2.40s CPU         2.60s WALL

 
   This run was terminated on:  11:29: 1  14Jun2019            

=------------------------------------------------------------------------------=
   JOB DONE.
=------------------------------------------------------------------------------=
