===== VARIABLES =====
EXE_PATH = /scr/szymansk/2019-3/qe-bin/bin/pw.x
tpp = 4
Parallel keywords = -nimage 1
MPIRUN_EXE = orterun
PATH = /scr/szymansk/2019-3/mmshare-v4.7/lib/Linux-x86_64/openmpi/bin:/scr/szymansk/2019-3/internal/bin:/scr/szymansk/2019-3/mmshare-v4.7/bin/Linux-x86_64:/home/szymansk/bin:/scr/szymansk/dakota/bin:/scr/szymansk/atompaw-4.1.0.5/src/:/usr/lib64/qt-3.3/bin:/usr/local/bin:/usr/local/sbin:/usr/bin:/usr/sbin:/bin:/sbin
LD_LIBRARY_PATH = /scr/szymansk/2019-3/mmshare-v4.7/lib/Linux-x86_64/openmpi/lib:/scr/szymansk/2019-3/internal/lib/ssl:/scr/szymansk/2019-3/internal/lib:/scr/szymansk/2019-3/mmshare-v4.7/lib/Linux-x86_64:/scr/szymansk/2019-3/internal/lib/python3.6/site-packages:/scr/szymansk/dakota/bin:/software/lib/Linux-x86_64/ifort_2017.1.132/mkl/lib/intel64
===== END VARIABLES =====
Invoking: exe_cmd () 
{ 
    "$MPIRUN_EXE" -np $tpp "$EXE_PATH" -in $input_file "${P_KEYWORDS[@]}"
}

     Program PWSCF v.6.3MaX starts on 14Jun2019 at 11:28:45 

     This program is part of the open-source Quantum ESPRESSO suite
     for quantum simulation of materials; please cite
         "P. Giannozzi et al., J. Phys.:Condens. Matter 21 395502 (2009);
         "P. Giannozzi et al., J. Phys.:Condens. Matter 29 465901 (2017);
          URL http://www.quantum-espresso.org", 
     in publications or presentations arising from this work. More details at
     http://www.quantum-espresso.org/quote

     Parallel version (MPI), running on     4 processors

     MPI processes distributed on     1 nodes
     R & G space division:  proc/nbgrp/npool/nimage =       4
     Reading input from Si.diamond.relax.in
Warning: card &CELL ignored
Warning: card   CELL_DYNAMICS='BFGS' ignored
Warning: card / ignored

     Current dimensions of program PWSCF are:
     Max number of different atomic species (ntypx) = 10
     Max number of k-points (npk) =  40000
     Max angular momentum in pseudopotentials (lmaxx) =  3

     Subspace diagonalization in iterative solution of the eigenvalue problem:
     a serial algorithm will be used

 
     Parallelization info
     --------------------
     sticks:   dense  smooth     PW     G-vecs:    dense   smooth      PW
     Min         186     148     46                 3360     2394     420
     Max         187     150     47                 3362     2395     423
     Sum         745     595    187                13443     9577    1687
 


     bravais-lattice index     =            0
     lattice parameter (alat)  =       7.3536  a.u.
     unit-cell volume          =     281.1759 (a.u.)^3
     number of atoms/cell      =            2
     number of atomic types    =            1
     number of electrons       =         8.00
     number of Kohn-Sham states=            8
     kinetic-energy cutoff     =      40.0000  Ry
     charge density cutoff     =     200.0000  Ry
     convergence threshold     =      1.0E-08
     mixing beta               =       0.7000
     number of iterations used =            8  plain     mixing
     Exchange-correlation      = SLA  PW   PBE  PBE ( 1  4  3  4 0 0)
     nstep                     =           50


     celldm(1)=   7.353561  celldm(2)=   0.000000  celldm(3)=   0.000000
     celldm(4)=   0.000000  celldm(5)=   0.000000  celldm(6)=   0.000000

     crystal axes: (cart. coord. in units of alat)
               a(1) = (  -0.707107   0.000000   0.707107 )  
               a(2) = (   0.000000   0.707107   0.707107 )  
               a(3) = (  -0.707107   0.707107   0.000000 )  

     reciprocal axes: (cart. coord. in units 2 pi/alat)
               b(1) = ( -0.707107 -0.707107  0.707107 )  
               b(2) = (  0.707107  0.707107  0.707107 )  
               b(3) = ( -0.707107  0.707107 -0.707107 )  


     PseudoPot. # 1 for Si read from file:
     ./Si.GGA-PBE-paw.UPF
     MD5 check sum: a056efeee980c13900f22a371efd63c1
     Pseudo is Ultrasoft + core correction, Zval =  4.0
     Generated by new atomic code, or converted to UPF format
     Using radial grid of  899 points,  6 beta functions with: 
                l(1) =   0
                l(2) =   0
                l(3) =   1
                l(4) =   1
                l(5) =   2
                l(6) =   2
     Q(r) pseudized with  8 coefficients,  rinner =    0.900   0.900   0.900
                                                       0.900   0.900

     atomic species   valence    mass     pseudopotential
        Si             4.00    28.08550     Si( 1.00)

     48 Sym. Ops., with inversion, found (24 have fractional translation)



   Cartesian axes

     site n.     atom                  positions (alat units)
         1           Si  tau(   1) = (   0.0000000   0.0000000   0.0000000  )
         2           Si  tau(   2) = (  -0.3535534   0.3535534   0.3535534  )

     number of k points=    72  Fermi-Dirac smearing, width (Ry)=  0.0020
                       cart. coord. in units 2pi/alat
        k(    1) = (   0.0000000   0.0000000   0.0000000), wk =   0.0011574
        k(    2) = (  -0.0589256   0.0589256  -0.0589256), wk =   0.0092593
        k(    3) = (  -0.1178511   0.1178511  -0.1178511), wk =   0.0092593
        k(    4) = (  -0.1767767   0.1767767  -0.1767767), wk =   0.0092593
        k(    5) = (  -0.2357023   0.2357023  -0.2357023), wk =   0.0092593
        k(    6) = (  -0.2946278   0.2946278  -0.2946278), wk =   0.0092593
        k(    7) = (   0.3535534  -0.3535534   0.3535534), wk =   0.0046296
        k(    8) = (   0.0000000   0.1178511   0.0000000), wk =   0.0069444
        k(    9) = (  -0.0589256   0.1767767  -0.0589256), wk =   0.0277778
        k(   10) = (  -0.1178511   0.2357023  -0.1178511), wk =   0.0277778
        k(   11) = (  -0.1767767   0.2946278  -0.1767767), wk =   0.0277778
        k(   12) = (  -0.2357023   0.3535534  -0.2357023), wk =   0.0277778
        k(   13) = (   0.4124790  -0.2946278   0.4124790), wk =   0.0277778
        k(   14) = (   0.3535534  -0.2357023   0.3535534), wk =   0.0277778
        k(   15) = (   0.2946278  -0.1767767   0.2946278), wk =   0.0277778
        k(   16) = (   0.2357023  -0.1178511   0.2357023), wk =   0.0277778
        k(   17) = (   0.1767767  -0.0589256   0.1767767), wk =   0.0277778
        k(   18) = (   0.1178511  -0.0000000   0.1178511), wk =   0.0138889
        k(   19) = (   0.0000000   0.2357023   0.0000000), wk =   0.0069444
        k(   20) = (  -0.0589256   0.2946278  -0.0589256), wk =   0.0277778
        k(   21) = (  -0.1178511   0.3535534  -0.1178511), wk =   0.0277778
        k(   22) = (  -0.1767767   0.4124790  -0.1767767), wk =   0.0277778
        k(   23) = (   0.4714045  -0.2357023   0.4714045), wk =   0.0277778
        k(   24) = (   0.4124790  -0.1767767   0.4124790), wk =   0.0277778
        k(   25) = (   0.3535534  -0.1178511   0.3535534), wk =   0.0277778
        k(   26) = (   0.2946278  -0.0589256   0.2946278), wk =   0.0277778
        k(   27) = (   0.2357023   0.0000000   0.2357023), wk =   0.0138889
        k(   28) = (   0.0000000   0.3535534   0.0000000), wk =   0.0069444
        k(   29) = (  -0.0589256   0.4124790  -0.0589256), wk =   0.0277778
        k(   30) = (  -0.1178511   0.4714045  -0.1178511), wk =   0.0277778
        k(   31) = (   0.5303301  -0.1767767   0.5303301), wk =   0.0277778
        k(   32) = (   0.4714045  -0.1178511   0.4714045), wk =   0.0277778
        k(   33) = (   0.4124790  -0.0589256   0.4124790), wk =   0.0277778
        k(   34) = (   0.3535534   0.0000000   0.3535534), wk =   0.0138889
        k(   35) = (   0.0000000   0.4714045   0.0000000), wk =   0.0069444
        k(   36) = (  -0.0589256   0.5303301  -0.0589256), wk =   0.0277778
        k(   37) = (   0.5892557  -0.1178511   0.5892557), wk =   0.0277778
        k(   38) = (   0.5303301  -0.0589256   0.5303301), wk =   0.0277778
        k(   39) = (   0.4714045  -0.0000000   0.4714045), wk =   0.0138889
        k(   40) = (   0.0000000   0.5892557   0.0000000), wk =   0.0069444
        k(   41) = (   0.6481812  -0.0589256   0.6481812), wk =   0.0277778
        k(   42) = (   0.5892557   0.0000000   0.5892557), wk =   0.0138889
        k(   43) = (   0.0000000  -0.7071068   0.0000000), wk =   0.0034722
        k(   44) = (  -0.1178511   0.2357023  -0.0000000), wk =   0.0277778
        k(   45) = (  -0.1767767   0.2946278  -0.0589256), wk =   0.0555556
        k(   46) = (  -0.2357023   0.3535534  -0.1178511), wk =   0.0555556
        k(   47) = (   0.4124790  -0.2946278   0.5303301), wk =   0.0555556
        k(   48) = (   0.3535534  -0.2357023   0.4714045), wk =   0.0277778
        k(   49) = (  -0.1178511   0.3535534   0.0000000), wk =   0.0277778
        k(   50) = (  -0.1767767   0.4124790  -0.0589256), wk =   0.0555556
        k(   51) = (   0.4714045  -0.2357023   0.5892557), wk =   0.0555556
        k(   52) = (   0.4124790  -0.1767767   0.5303301), wk =   0.0555556
        k(   53) = (   0.3535534  -0.1178511   0.4714045), wk =   0.0555556
        k(   54) = (   0.2946278  -0.0589256   0.4124790), wk =   0.0555556
        k(   55) = (   0.2357023   0.0000000   0.3535534), wk =   0.0277778
        k(   56) = (  -0.1178511   0.4714045   0.0000000), wk =   0.0277778
        k(   57) = (   0.5303301  -0.1767767   0.6481812), wk =   0.0555556
        k(   58) = (   0.4714045  -0.1178511   0.5892557), wk =   0.0555556
        k(   59) = (   0.4124790  -0.0589256   0.5303301), wk =   0.0555556
        k(   60) = (   0.3535534  -0.0000000   0.4714045), wk =   0.0277778
        k(   61) = (   0.5892557  -0.1178511   0.7071068), wk =   0.0277778
        k(   62) = (   0.5303301  -0.0589256   0.6481812), wk =   0.0555556
        k(   63) = (   0.4714045  -0.0000000   0.5892557), wk =   0.0277778
        k(   64) = (  -0.1178511  -0.7071068   0.0000000), wk =   0.0138889
        k(   65) = (   0.4714045  -0.2357023   0.7071068), wk =   0.0277778
        k(   66) = (   0.4124790  -0.1767767   0.6481812), wk =   0.0555556
        k(   67) = (   0.3535534  -0.1178511   0.5892557), wk =   0.0277778
        k(   68) = (   0.4714045  -0.1178511   0.7071068), wk =   0.0277778
        k(   69) = (   0.4124790  -0.0589256   0.6481812), wk =   0.0555556
        k(   70) = (   0.3535534   0.0000000   0.5892557), wk =   0.0277778
        k(   71) = (  -0.2357023  -0.7071068   0.0000000), wk =   0.0138889
        k(   72) = (  -0.3535534  -0.7071068   0.0000000), wk =   0.0069444

     Dense  grid:    13443 G-vectors     FFT dimensions: (  36,  36,  36)

     Smooth grid:     9577 G-vectors     FFT dimensions: (  30,  30,  30)

     Estimated max dynamical RAM per process >      16.13 MB

     Estimated total dynamical RAM >      64.53 MB

     Initial potential from superposition of free atoms

     starting charge    7.99866, renormalised to    8.00000
     Starting wfcs are    8 randomized atomic wfcs

     total cpu time spent up to now is        0.2 secs

     Self-consistent Calculation

     iteration #  1     ecut=    40.00 Ry     beta= 0.70
     Davidson diagonalization with overlap
     ethr =  1.00E-02,  avg # of iterations =  3.5

     Threshold (ethr) on eigenvalues was too large:
     Diagonalizing with lowered threshold

     Davidson diagonalization with overlap
     ethr =  6.69E-04,  avg # of iterations =  1.2

     total cpu time spent up to now is        1.0 secs

     total energy              =     -19.19098153 Ry
     Harris-Foulkes estimate   =     -19.20295854 Ry
     estimated scf accuracy    <       0.05276137 Ry

     iteration #  2     ecut=    40.00 Ry     beta= 0.70
     Davidson diagonalization with overlap
     ethr =  6.60E-04,  avg # of iterations =  1.0

     total cpu time spent up to now is        1.4 secs

     total energy              =     -19.19299408 Ry
     Harris-Foulkes estimate   =     -19.19310848 Ry
     estimated scf accuracy    <       0.00215030 Ry

     iteration #  3     ecut=    40.00 Ry     beta= 0.70
     Davidson diagonalization with overlap
     ethr =  2.69E-05,  avg # of iterations =  2.6

     total cpu time spent up to now is        1.7 secs

     total energy              =     -19.19312790 Ry
     Harris-Foulkes estimate   =     -19.19312136 Ry
     estimated scf accuracy    <       0.00003587 Ry

     iteration #  4     ecut=    40.00 Ry     beta= 0.70
     Davidson diagonalization with overlap
     ethr =  4.48E-07,  avg # of iterations =  3.1

     total cpu time spent up to now is        2.1 secs

     total energy              =     -19.19316124 Ry
     Harris-Foulkes estimate   =     -19.19316112 Ry
     estimated scf accuracy    <       0.00000009 Ry

     iteration #  5     ecut=    40.00 Ry     beta= 0.70
     Davidson diagonalization with overlap
     ethr =  1.16E-09,  avg # of iterations =  2.7

     total cpu time spent up to now is        2.4 secs

     End of self-consistent calculation

          k = 0.0000 0.0000 0.0000 (  1243 PWs)   bands (ev):

    -5.9053   5.7840   5.7840   5.7840   8.3336   8.3336   8.3336   8.6945

          k =-0.0589 0.0589-0.0589 (  1230 PWs)   bands (ev):

    -5.8174   4.9239   5.6464   5.6464   8.2981   8.5362   8.5362   9.4457

          k =-0.1179 0.1179-0.1179 (  1215 PWs)   bands (ev):

    -5.5566   3.4317   5.3506   5.3506   8.0039   8.9590   8.9590  10.9002

          k =-0.1768 0.1768-0.1768 (  1203 PWs)   bands (ev):

    -5.1339   1.9285   5.0501   5.0501   7.6759   9.2603   9.2603  12.3761

          k =-0.2357 0.2357-0.2357 (  1194 PWs)   bands (ev):

    -4.5795   0.5664   4.8149   4.8149   7.4092   9.2860   9.2860  13.4784

          k =-0.2946 0.2946-0.2946 (  1185 PWs)   bands (ev):

    -3.9880  -0.5203   4.6695   4.6695   7.2408   9.1930   9.1930  13.5323

          k = 0.3536-0.3536 0.3536 (  1194 PWs)   bands (ev):

    -3.6739  -1.0009   4.6205   4.6205   7.1836   9.1452   9.1452  13.4628

          k = 0.0000 0.1179 0.0000 (  1227 PWs)   bands (ev):

    -5.7880   5.0572   5.3751   5.3751   8.0695   8.8869   8.8869   9.3744

          k =-0.0589 0.1768-0.0589 (  1213 PWs)   bands (ev):

    -5.5842   3.8598   5.0251   5.1923   8.0841   8.8786   9.4070  10.4183

          k =-0.1179 0.2357-0.1179 (  1208 PWs)   bands (ev):

    -5.2139   2.4027   4.7212   4.8761   8.1533   8.9068   9.7918  11.1013

          k =-0.1768 0.2946-0.1768 (  1206 PWs)   bands (ev):

    -4.6982   1.0128   4.5157   4.5324   7.9720   9.0482   9.8386  11.6906

          k =-0.2357 0.3536-0.2357 (  1199 PWs)   bands (ev):

    -4.0997  -0.1724   4.2453   4.4258   7.7959   9.0488   9.6687  12.7035

          k = 0.4125-0.2946 0.4125 (  1195 PWs)   bands (ev):

    -3.6361  -0.9068   4.0483   4.4529   7.7095   9.0637   9.4840  13.6031

          k = 0.3536-0.2357 0.3536 (  1193 PWs)   bands (ev):

    -3.7495  -0.7382   3.9592   4.5892   7.7307   9.1791   9.3761  13.7098

          k = 0.2946-0.1768 0.2946 (  1199 PWs)   bands (ev):

    -4.3019   0.1931   3.9901   4.8198   7.8589   9.3335   9.3737  13.1093

          k = 0.2357-0.1179 0.2357 (  1200 PWs)   bands (ev):

    -4.8850   1.4615   4.1504   5.1193   8.0821   9.2323   9.4979  12.1225

          k = 0.1768-0.0589 0.1768 (  1210 PWs)   bands (ev):

    -5.3558   2.8733   4.4518   5.4380   8.3666   8.9252   9.2579  11.2804

          k = 0.1179-0.0000 0.1179 (  1215 PWs)   bands (ev):

    -5.6717   4.1905   4.9619   5.6666   8.5761   8.5767   8.7142  10.2928

          k = 0.0000 0.2357 0.0000 (  1219 PWs)   bands (ev):

    -5.4377   3.7101   4.6421   4.6421   7.5070   9.8987  10.0464  10.0464

          k =-0.0589 0.2946-0.0589 (  1208 PWs)   bands (ev):

    -5.1220   2.6640   4.2943   4.3186   7.5248   9.5733  10.4080  10.5969

          k =-0.1179 0.3536-0.1179 (  1207 PWs)   bands (ev):

    -4.6517   1.4045   3.8499   4.1056   7.7563   9.7253  10.2781  10.7811

          k =-0.1768 0.4125-0.1768 (  1200 PWs)   bands (ev):

    -4.0686   0.2184   3.4225   4.0221   7.7981   9.9122  10.6288  10.7893

          k = 0.4714-0.2357 0.4714 (  1201 PWs)   bands (ev):

    -3.5143  -0.6735   3.0899   4.0716   7.8207   9.7975  10.3758  12.1004

          k = 0.4125-0.1768 0.4125 (  1200 PWs)   bands (ev):

    -3.4072  -0.8242   2.8866   4.2470   7.9467   9.7652  10.1574  13.6073

          k = 0.3536-0.1179 0.3536 (  1192 PWs)   bands (ev):

    -3.8798  -0.1018   2.8388   4.5297   8.1834   9.8336   9.9855  12.8873

          k = 0.2946-0.0589 0.2946 (  1203 PWs)   bands (ev):

    -4.4775   0.9972   2.9899   4.8831   8.4811   9.7414   9.8963  11.7462

          k = 0.2357 0.0000 0.2357 (  1209 PWs)   bands (ev):

    -4.9893   2.0991   3.4734   5.2329   8.7005   9.3006   9.5649  11.2888

          k = 0.0000 0.3536 0.0000 (  1198 PWs)   bands (ev):

    -4.8605   2.2585   3.9690   3.9690   6.9554   8.9215  11.4134  11.4134

          k =-0.0589 0.4125-0.0589 (  1214 PWs)   bands (ev):

    -4.4394   1.3788   3.5199   3.7300   7.0378   8.5879  11.6715  11.8939

          k =-0.1179 0.4714-0.1179 (  1204 PWs)   bands (ev):

    -3.8861   0.3907   2.9101   3.6250   7.2585   9.0361  11.5209  11.8794

          k = 0.5303-0.1768 0.5303 (  1197 PWs)   bands (ev):

    -3.2902  -0.4933   2.3820   3.6607   7.3470  10.2033  11.3412  11.6254

          k = 0.4714-0.1179 0.4714 (  1188 PWs)   bands (ev):

    -2.9860  -0.8837   2.0337   3.8329   7.5156  11.1452  11.3379  11.7952

          k = 0.4125-0.0589 0.4125 (  1191 PWs)   bands (ev):

    -3.3425  -0.4155   1.9256   4.1253   7.8186  11.0300  11.1053  12.7706

          k = 0.3536 0.0000 0.3536 (  1203 PWs)   bands (ev):

    -3.9372   0.3748   2.1857   4.5014   8.2097  10.4950  10.8267  11.7262

          k = 0.0000 0.4714 0.0000 (  1218 PWs)   bands (ev):

    -4.0668   0.8061   3.4582   3.4582   6.5720   7.8346  12.8747  12.8747

          k =-0.0589 0.5303-0.0589 (  1208 PWs)   bands (ev):

    -3.5514   0.0451   2.9963   3.3196   6.7334   7.7003  13.1673  13.2532

          k = 0.5893-0.1179 0.5893 (  1207 PWs)   bands (ev):

    -2.9481  -0.6968   2.3045   3.3246   6.9119   8.5134  13.0457  13.0974

          k = 0.5303-0.0589 0.5303 (  1192 PWs)   bands (ev):

    -2.5054  -1.1641   1.7537   3.4721   7.0820   9.9192  12.7521  12.8805

          k = 0.4714-0.0000 0.4714 (  1196 PWs)   bands (ev):

    -2.7695  -0.8848   1.5607   3.7494   7.3919  11.5453  12.1275  12.6588

          k = 0.0000 0.5893 0.0000 (  1198 PWs)   bands (ev):

    -3.0734  -0.5977   3.1432   3.1432   6.4309   7.0385  14.3843  14.3843

          k = 0.6482-0.0589 0.6482 (  1198 PWs)   bands (ev):

    -2.4826  -1.2632   2.7361   3.1102   6.6331   7.1847  14.6330  14.6944

          k = 0.5893 0.0000 0.5893 (  1198 PWs)   bands (ev):

    -2.0522  -1.6493   2.1027   3.2229   6.7890   8.3410  14.0916  14.5221

          k = 0.0000-0.7071 0.0000 (  1186 PWs)   bands (ev):

    -1.9055  -1.9055   3.0370   3.0370   6.5758   6.5758  15.5539  15.5539

          k =-0.1179 0.2357-0.0000 (  1210 PWs)   bands (ev):

    -5.3249   3.0630   4.2213   5.0950   8.1152   9.1708   9.8655  10.6152

          k =-0.1768 0.2946-0.0589 (  1211 PWs)   bands (ev):

    -4.9042   1.8626   3.6990   4.8312   8.3716   9.1705  10.2715  10.6566

          k =-0.2357 0.3536-0.1179 (  1204 PWs)   bands (ev):

    -4.3514   0.6100   3.4273   4.5183   8.3730   9.1342  10.3359  11.2760

          k = 0.4125-0.2946 0.5303 (  1201 PWs)   bands (ev):

    -3.7583  -0.4348   3.2965   4.2838   8.2927   8.9988  10.2673  12.4427

          k = 0.3536-0.2357 0.4714 (  1198 PWs)   bands (ev):

    -3.4398  -0.9078   3.2591   4.1970   8.2608   8.9329  10.2262  13.6968

          k =-0.1179 0.3536 0.0000 (  1207 PWs)   bands (ev):

    -4.7543   1.8810   3.5501   4.2150   7.5896   9.2814  10.5062  11.2996

          k =-0.1768 0.4125-0.0589 (  1206 PWs)   bands (ev):

    -4.2417   0.8684   3.0257   3.9414   7.9155   9.5060  10.2498  11.6834

          k = 0.4714-0.2357 0.5893 (  1204 PWs)   bands (ev):

    -3.6427  -0.1401   2.6722   3.7421   8.0361   9.9328  10.5162  11.6736

          k = 0.4125-0.1768 0.5303 (  1195 PWs)   bands (ev):

    -3.1724  -0.8103   2.4324   3.7249   8.1555   9.6674  11.5644  11.9566

          k = 0.3536-0.1179 0.4714 (  1194 PWs)   bands (ev):

    -3.3007  -0.6329   2.3227   3.8891   8.3863   9.4921  11.4726  12.3561

          k = 0.2946-0.0589 0.4125 (  1200 PWs)   bands (ev):

    -3.8626   0.2020   2.4045   4.1912   8.7142   9.3602  10.9793  11.4643

          k = 0.2357 0.0000 0.3536 (  1202 PWs)   bands (ev):

    -4.4409   1.1448   2.8129   4.5551   8.9649   9.0498  10.4246  11.0156

          k =-0.1179 0.4714 0.0000 (  1210 PWs)   bands (ev):

    -3.9726   0.6388   3.0580   3.4683   7.2109   8.2993  11.7027  12.8269

          k = 0.5303-0.1768 0.6482 (  1202 PWs)   bands (ev):

    -3.3907  -0.1684   2.4953   3.2622   7.5437   8.8013  11.4152  13.1869

          k = 0.4714-0.1179 0.5893 (  1198 PWs)   bands (ev):

    -2.8295  -0.8512   1.9963   3.2690   7.6956  10.0627  11.1259  13.1104

          k = 0.4125-0.0589 0.5303 (  1194 PWs)   bands (ev):

    -2.7652  -0.9158   1.7220   3.4585   7.9399  10.7795  11.7338  12.3604

          k = 0.3536-0.0000 0.4714 (  1194 PWs)   bands (ev):

    -3.2779  -0.3482   1.8069   3.7886   8.3094  10.3640  11.1924  12.5006

          k = 0.5893-0.1179 0.7071 (  1199 PWs)   bands (ev):

    -3.0005  -0.6351   2.7845   2.9753   7.0539   7.5718  13.0490  14.3749

          k = 0.5303-0.0589 0.6482 (  1194 PWs)   bands (ev):

    -2.3980  -1.2572   2.1914   2.9325   7.3448   8.4368  12.7442  14.1556

          k = 0.4714-0.0000 0.5893 (  1193 PWs)   bands (ev):

    -2.2582  -1.3607   1.7192   3.1215   7.5727   9.9269  12.2960  12.6819

          k =-0.1179-0.7071 0.0000 (  1196 PWs)   bands (ev):

    -1.8712  -1.8712   2.7514   2.7514   7.1633   7.1633  14.4685  14.4685

          k = 0.4714-0.2357 0.7071 (  1206 PWs)   bands (ev):

    -3.6992   0.2021   2.3610   3.5833   8.6232   9.5073   9.9129  12.6928

          k = 0.4125-0.1768 0.6482 (  1203 PWs)   bands (ev):

    -3.1022  -0.5389   2.0245   3.2636   9.0001   9.5124  10.4575  13.1142

          k = 0.3536-0.1179 0.5893 (  1192 PWs)   bands (ev):

    -2.7609  -0.9456   1.9317   3.1408   9.1622   9.2647  11.8039  12.1483

          k = 0.4714-0.1179 0.7071 (  1201 PWs)   bands (ev):

    -2.7990  -0.7765   2.1730   2.7709   8.4658   8.8792  11.0524  13.8917

          k = 0.4125-0.0589 0.6482 (  1201 PWs)   bands (ev):

    -2.3005  -1.2649   1.8759   2.6230   8.8062  10.0574  10.7724  12.1448

          k = 0.3536 0.0000 0.5893 (  1193 PWs)   bands (ev):

    -2.5240  -1.0407   1.7564   2.8375   9.1010  10.2177  10.6897  11.8991

          k =-0.2357-0.7071 0.0000 (  1200 PWs)   bands (ev):

    -1.7981  -1.7981   2.2956   2.2956   8.5403   8.5403  12.4031  12.4031

          k =-0.3536-0.7071 0.0000 (  1216 PWs)   bands (ev):

    -1.7590  -1.7590   2.1005   2.1005  10.0617  10.0617  10.6482  10.6482

     the Fermi energy is     6.0989 ev

!    total energy              =     -19.19316132 Ry
     Harris-Foulkes estimate   =     -19.19316132 Ry
     estimated scf accuracy    <          4.7E-09 Ry

     The total energy is the sum of the following terms:

     one-electron contribution =       4.80572119 Ry
     hartree contribution      =       1.15086610 Ry
     xc contribution           =      -8.57419737 Ry
     ewald contribution        =     -16.57555124 Ry
     smearing contrib. (-TS)   =      -0.00000000 Ry

     convergence has been achieved in   5 iterations

     Forces acting on atoms (cartesian axes, Ry/au):

     atom    1 type  1   force =    -0.00000000   -0.00000000    0.00000000
     atom    2 type  1   force =    -0.00000000   -0.00000000    0.00000000

     Total force =     0.000000     Total SCF correction =     0.000000

     BFGS Geometry Optimization

     bfgs converged in   1 scf cycles and   0 bfgs steps
     (criteria: energy <  1.0E-05 Ry, force <  1.0E-03 Ry/Bohr)

     End of BFGS Geometry Optimization

     Final energy   =     -19.1931613240 Ry
Begin final coordinates

ATOMIC_POSITIONS (crystal)
Si       0.000000000   0.000000000   0.000000000
Si       0.250000000   0.250000000   0.250000000
End final coordinates



     Writing output data file Si.diamond.relax.save/
 
     init_run     :      0.13s CPU      0.15s WALL (       1 calls)
     electrons    :      2.08s CPU      2.20s WALL (       1 calls)
     forces       :      0.04s CPU      0.04s WALL (       1 calls)

     Called by init_run:
     wfcinit      :      0.08s CPU      0.08s WALL (       1 calls)
     potinit      :      0.01s CPU      0.01s WALL (       1 calls)
     hinit0       :      0.04s CPU      0.04s WALL (       1 calls)

     Called by electrons:
     c_bands      :      1.72s CPU      1.80s WALL (       6 calls)
     sum_band     :      0.31s CPU      0.34s WALL (       6 calls)
     v_of_rho     :      0.02s CPU      0.02s WALL (       6 calls)
     newd         :      0.03s CPU      0.04s WALL (       6 calls)
     mix_rho      :      0.00s CPU      0.00s WALL (       6 calls)

     Called by c_bands:
     init_us_2    :      0.06s CPU      0.07s WALL (    1008 calls)
     cegterg      :      1.43s CPU      1.50s WALL (     432 calls)

     Called by sum_band:
     sum_band:bec :      0.00s CPU      0.00s WALL (     432 calls)
     addusdens    :      0.03s CPU      0.04s WALL (       6 calls)

     Called by *egterg:
     h_psi        :      1.19s CPU      1.25s WALL (    1508 calls)
     s_psi        :      0.03s CPU      0.03s WALL (    1508 calls)
     g_psi        :      0.00s CPU      0.01s WALL (    1004 calls)
     cdiaghg      :      0.14s CPU      0.14s WALL (    1364 calls)

     Called by h_psi:
     h_psi:pot    :      1.19s CPU      1.25s WALL (    1508 calls)
     h_psi:calbec :      0.06s CPU      0.07s WALL (    1508 calls)
     vloc_psi     :      1.08s CPU      1.14s WALL (    1508 calls)
     add_vuspsi   :      0.03s CPU      0.03s WALL (    1508 calls)

     General routines
     calbec       :      0.09s CPU      0.10s WALL (    2228 calls)
     fft          :      0.01s CPU      0.01s WALL (      89 calls)
     ffts         :      0.00s CPU      0.00s WALL (      12 calls)
     fftw         :      1.18s CPU      1.24s WALL (   22432 calls)
     interpolate  :      0.00s CPU      0.00s WALL (       6 calls)
 
     Parallel routines
     fft_scatt_xy :      0.15s CPU      0.16s WALL (   22533 calls)
     fft_scatt_yz :      0.56s CPU      0.59s WALL (   22533 calls)
 
     PWSCF        :     2.31s CPU         2.48s WALL

 
   This run was terminated on:  11:28:48  14Jun2019            

=------------------------------------------------------------------------------=
   JOB DONE.
=------------------------------------------------------------------------------=
