===== VARIABLES =====
EXE_PATH = /scr/szymansk/2019-3/qe-bin/bin/pw.x
tpp = 4
Parallel keywords = -nimage 1
MPIRUN_EXE = orterun
PATH = /scr/szymansk/2019-3/mmshare-v4.7/lib/Linux-x86_64/openmpi/bin:/scr/szymansk/2019-3/internal/bin:/scr/szymansk/2019-3/mmshare-v4.7/bin/Linux-x86_64:/scr/szymansk/gaopaw/scripts:/home/szymansk/bin:/scr/szymansk/dakota/bin:/scr/szymansk/atompaw-4.1.0.5/src/:/usr/lib64/qt-3.3/bin:/usr/local/bin:/usr/local/sbin:/usr/bin:/usr/sbin:/bin:/sbin
LD_LIBRARY_PATH = /scr/szymansk/2019-3/mmshare-v4.7/lib/Linux-x86_64/openmpi/lib:/scr/szymansk/2019-3/internal/lib/ssl:/scr/szymansk/2019-3/internal/lib:/scr/szymansk/2019-3/mmshare-v4.7/lib/Linux-x86_64:/scr/szymansk/2019-3/internal/lib/python3.6/site-packages:/scr/szymansk/dakota/bin:/software/lib/Linux-x86_64/ifort_2017.1.132/mkl/lib/intel64
===== END VARIABLES =====
Invoking: exe_cmd () 
{ 
    "$MPIRUN_EXE" -np $tpp "$EXE_PATH" -in $input_file "${P_KEYWORDS[@]}"
}

     Program PWSCF v.6.3MaX starts on  9Aug2019 at 15:52:22 

     This program is part of the open-source Quantum ESPRESSO suite
     for quantum simulation of materials; please cite
         "P. Giannozzi et al., J. Phys.:Condens. Matter 21 395502 (2009);
         "P. Giannozzi et al., J. Phys.:Condens. Matter 29 465901 (2017);
          URL http://www.quantum-espresso.org", 
     in publications or presentations arising from this work. More details at
     http://www.quantum-espresso.org/quote

     Parallel version (MPI), running on     4 processors

     MPI processes distributed on     1 nodes
     R & G space division:  proc/nbgrp/npool/nimage =       4
     Reading input from Be.FCC.relax.in

     Current dimensions of program PWSCF are:
     Max number of different atomic species (ntypx) = 10
     Max number of k-points (npk) =  40000
     Max angular momentum in pseudopotentials (lmaxx) =  3
               file Be.GGA-PBE-paw.UPF: wavefunction(s)  Xn Xn renormalized

     Subspace diagonalization in iterative solution of the eigenvalue problem:
     a serial algorithm will be used

 
     Parallelization info
     --------------------
     sticks:   dense  smooth     PW     G-vecs:    dense   smooth      PW
     Min          63      49     18                  659      457     102
     Max          64      50     19                  660      460     104
     Sum         253     199     73                 2637     1837     411
 


     bravais-lattice index     =            2
     lattice parameter (alat)  =       5.9830  a.u.
     unit-cell volume          =      53.5423 (a.u.)^3
     number of atoms/cell      =            1
     number of atomic types    =            1
     number of electrons       =         4.00
     number of Kohn-Sham states=            6
     kinetic-energy cutoff     =      40.0000  Ry
     charge density cutoff     =     200.0000  Ry
     convergence threshold     =      1.0E-08
     mixing beta               =       0.7000
     number of iterations used =            8  plain     mixing
     Exchange-correlation      = SLA PW PBX PBC ( 1  4  3  4 0 0)
     nstep                     =           50


     celldm(1)=   5.983000  celldm(2)=   0.000000  celldm(3)=   0.000000
     celldm(4)=   0.000000  celldm(5)=   0.000000  celldm(6)=   0.000000

     crystal axes: (cart. coord. in units of alat)
               a(1) = (  -0.500000   0.000000   0.500000 )  
               a(2) = (   0.000000   0.500000   0.500000 )  
               a(3) = (  -0.500000   0.500000   0.000000 )  

     reciprocal axes: (cart. coord. in units 2 pi/alat)
               b(1) = ( -1.000000 -1.000000  1.000000 )  
               b(2) = (  1.000000  1.000000  1.000000 )  
               b(3) = ( -1.000000  1.000000 -1.000000 )  


     PseudoPot. # 1 for Be read from file:
     ./Be.GGA-PBE-paw.UPF
     MD5 check sum: c34b7d9327d26e8264fe303055e72c93
     Pseudo is Projector augmented-wave + core cor, Zval =  4.0
     Generated using ATOMPAW code
     Shape of augmentation charge: SINC**2
     Using radial grid of 2342 points,  4 beta functions with: 
                l(1) =   0
                l(2) =   0
                l(3) =   1
                l(4) =   1
     Q(r) pseudized with 0 coefficients 


     atomic species   valence    mass     pseudopotential
        Be             4.00     9.01218     Be( 1.00)

     48 Sym. Ops., with inversion, found



   Cartesian axes

     site n.     atom                  positions (alat units)
         1           Be  tau(   1) = (   0.0000000   0.0000000   0.0000000  )

     number of k points=    29  Fermi-Dirac smearing, width (Ry)=  0.0020
                       cart. coord. in units 2pi/alat
        k(    1) = (   0.0000000   0.0000000   0.0000000), wk =   0.0039062
        k(    2) = (  -0.1250000   0.1250000  -0.1250000), wk =   0.0312500
        k(    3) = (  -0.2500000   0.2500000  -0.2500000), wk =   0.0312500
        k(    4) = (  -0.3750000   0.3750000  -0.3750000), wk =   0.0312500
        k(    5) = (   0.5000000  -0.5000000   0.5000000), wk =   0.0156250
        k(    6) = (   0.0000000   0.2500000   0.0000000), wk =   0.0234375
        k(    7) = (  -0.1250000   0.3750000  -0.1250000), wk =   0.0937500
        k(    8) = (  -0.2500000   0.5000000  -0.2500000), wk =   0.0937500
        k(    9) = (   0.6250000  -0.3750000   0.6250000), wk =   0.0937500
        k(   10) = (   0.5000000  -0.2500000   0.5000000), wk =   0.0937500
        k(   11) = (   0.3750000  -0.1250000   0.3750000), wk =   0.0937500
        k(   12) = (   0.2500000   0.0000000   0.2500000), wk =   0.0468750
        k(   13) = (   0.0000000   0.5000000   0.0000000), wk =   0.0234375
        k(   14) = (  -0.1250000   0.6250000  -0.1250000), wk =   0.0937500
        k(   15) = (   0.7500000  -0.2500000   0.7500000), wk =   0.0937500
        k(   16) = (   0.6250000  -0.1250000   0.6250000), wk =   0.0937500
        k(   17) = (   0.5000000   0.0000000   0.5000000), wk =   0.0468750
        k(   18) = (   0.0000000   0.7500000   0.0000000), wk =   0.0234375
        k(   19) = (   0.8750000  -0.1250000   0.8750000), wk =   0.0937500
        k(   20) = (   0.7500000   0.0000000   0.7500000), wk =   0.0468750
        k(   21) = (   0.0000000  -1.0000000   0.0000000), wk =   0.0117188
        k(   22) = (  -0.2500000   0.5000000   0.0000000), wk =   0.0937500
        k(   23) = (   0.6250000  -0.3750000   0.8750000), wk =   0.1875000
        k(   24) = (   0.5000000  -0.2500000   0.7500000), wk =   0.0937500
        k(   25) = (   0.7500000  -0.2500000   1.0000000), wk =   0.0937500
        k(   26) = (   0.6250000  -0.1250000   0.8750000), wk =   0.1875000
        k(   27) = (   0.5000000   0.0000000   0.7500000), wk =   0.0937500
        k(   28) = (  -0.2500000  -1.0000000   0.0000000), wk =   0.0468750
        k(   29) = (  -0.5000000  -1.0000000   0.0000000), wk =   0.0234375

     Dense  grid:     2637 G-vectors     FFT dimensions: (  20,  20,  20)

     Smooth grid:     1837 G-vectors     FFT dimensions: (  18,  18,  18)

     Estimated max dynamical RAM per process >       1.69 MB

     Estimated total dynamical RAM >       6.78 MB

     Initial potential from superposition of free atoms

     starting charge    3.99982, renormalised to    4.00000
     Starting wfcs are    8 randomized atomic wfcs
     Checking if some PAW data can be deallocated... 

     total cpu time spent up to now is        1.2 secs

     Self-consistent Calculation

     iteration #  1     ecut=    40.00 Ry     beta= 0.70
     Davidson diagonalization with overlap
     ethr =  1.00E-02,  avg # of iterations =  4.2

     Threshold (ethr) on eigenvalues was too large:
     Diagonalizing with lowered threshold

     Davidson diagonalization with overlap
     ethr =  1.71E-06,  avg # of iterations =  3.6

     total cpu time spent up to now is        1.3 secs

     total energy              =     -29.53208910 Ry
     Harris-Foulkes estimate   =     -29.52967256 Ry
     estimated scf accuracy    <       0.00006466 Ry

     iteration #  2     ecut=    40.00 Ry     beta= 0.70
     Davidson diagonalization with overlap
     ethr =  1.62E-06,  avg # of iterations =  2.5

     total cpu time spent up to now is        1.3 secs

     total energy              =     -29.53241626 Ry
     Harris-Foulkes estimate   =     -29.53217467 Ry
     estimated scf accuracy    <       0.00001057 Ry

     iteration #  3     ecut=    40.00 Ry     beta= 0.70
     Davidson diagonalization with overlap
     ethr =  2.64E-07,  avg # of iterations =  2.0

     total cpu time spent up to now is        1.4 secs

     total energy              =     -29.53243153 Ry
     Harris-Foulkes estimate   =     -29.53242452 Ry
     estimated scf accuracy    <       0.00000102 Ry

     iteration #  4     ecut=    40.00 Ry     beta= 0.70
     Davidson diagonalization with overlap
     ethr =  2.55E-08,  avg # of iterations =  2.0

     total cpu time spent up to now is        1.4 secs

     End of self-consistent calculation

          k = 0.0000 0.0000 0.0000 (   259 PWs)   bands (ev):

   -90.8890  -2.1247  29.0037  29.0037  29.0037  38.7699

          k =-0.1250 0.1250-0.1250 (   232 PWs)   bands (ev):

   -90.8854  -1.6100  25.3812  28.2622  28.2622  36.8906

          k =-0.2500 0.2500-0.2500 (   232 PWs)   bands (ev):

   -90.8770  -0.0717  18.8230  27.0711  27.0711  38.0763

          k =-0.3750 0.3750-0.3750 (   232 PWs)   bands (ev):

   -90.8685   2.3861  12.9193  26.3187  26.3187  36.8956

          k = 0.5000-0.5000 0.5000 (   228 PWs)   bands (ev):

   -90.8648   4.4266   9.6904  26.0910  26.0910  35.9088

          k = 0.0000 0.2500 0.0000 (   230 PWs)   bands (ev):

   -90.8842  -1.4366  26.2482  26.2482  28.9076  33.2431

          k =-0.1250 0.3750-0.1250 (   228 PWs)   bands (ev):

   -90.8775  -0.2307  21.1930  24.5913  28.1298  33.1179

          k =-0.2500 0.5000-0.2500 (   228 PWs)   bands (ev):

   -90.8689   1.9728  15.0072  23.9013  26.1745  31.9313

          k = 0.6250-0.3750 0.6250 (   233 PWs)   bands (ev):

   -90.8637   4.6555  10.3632  24.2194  24.2842  31.8071

          k = 0.5000-0.2500 0.5000 (   230 PWs)   bands (ev):

   -90.8649   3.8367  11.5383  23.0782  25.6200  33.0482

          k = 0.3750-0.1250 0.3750 (   223 PWs)   bands (ev):

   -90.8717   1.1359  16.8348  23.0126  27.4971  35.5734

          k = 0.2500 0.0000 0.2500 (   233 PWs)   bands (ev):

   -90.8803  -0.7494  22.6980  24.3745  28.8986  36.8293

          k = 0.0000 0.5000 0.0000 (   234 PWs)   bands (ev):

   -90.8732   0.6427  22.4939  22.4939  25.9249  28.5973

          k =-0.1250 0.6250-0.1250 (   226 PWs)   bands (ev):

   -90.8663   2.5401  17.8142  21.4533  22.4539  29.5069

          k = 0.7500-0.2500 0.7500 (   231 PWs)   bands (ev):

   -90.8611   5.3333  12.3298  19.9071  21.6090  30.3285

          k = 0.6250-0.1250 0.6250 (   230 PWs)   bands (ev):

   -90.8605   6.3786  10.5499  18.6578  22.9395  31.2505

          k = 0.5000 0.0000 0.5000 (   222 PWs)   bands (ev):

   -90.8649   3.4028  14.2353  19.2842  25.2256  32.9556

          k = 0.0000 0.7500 0.0000 (   226 PWs)   bands (ev):

   -90.8619   4.0448  18.1926  20.0159  20.0159  25.7975

          k = 0.8750-0.1250 0.8750 (   228 PWs)   bands (ev):

   -90.8584   6.3621  14.3505  17.2707  19.7935  28.0840

          k = 0.7500 0.0000 0.7500 (   224 PWs)   bands (ev):

   -90.8578   8.8520  10.1218  16.2533  20.8065  30.1612

          k = 0.0000-1.0000 0.0000 (   222 PWs)   bands (ev):

   -90.8573   7.0356  13.5134  19.1687  19.1687  24.8632

          k =-0.2500 0.5000 0.0000 (   223 PWs)   bands (ev):

   -90.8706   1.3295  18.5432  21.3141  26.0680  33.5952

          k = 0.6250-0.3750 0.8750 (   230 PWs)   bands (ev):

   -90.8638   3.8794  13.5282  20.2734  23.4748  32.6540

          k = 0.5000-0.2500 0.7500 (   232 PWs)   bands (ev):

   -90.8610   6.2265  10.1270  20.3475  22.2566  32.2929

          k = 0.7500-0.2500 1.0000 (   226 PWs)   bands (ev):

   -90.8611   4.7588  15.9154  17.3970  20.7387  31.6540

          k = 0.6250-0.1250 0.8750 (   227 PWs)   bands (ev):

   -90.8582   7.7821  11.4019  16.0290  20.3834  32.6651

          k = 0.5000 0.0000 0.7500 (   227 PWs)   bands (ev):

   -90.8593   6.8536  11.5536  16.6667  21.3791  33.1050

          k =-0.2500-1.0000 0.0000 (   226 PWs)   bands (ev):

   -90.8572   7.9446  13.1451  15.0278  19.5097  30.7830

          k =-0.5000-1.0000 0.0000 (   224 PWs)   bands (ev):

   -90.8571  10.6516  10.6516  12.8223  19.7962  35.0158

     the Fermi energy is    10.0480 ev

!    total energy              =     -29.53243181 Ry
     Harris-Foulkes estimate   =     -29.53243180 Ry
     estimated scf accuracy    <          3.3E-09 Ry

     total all-electron energy =       -29.532432 Ry

     The total energy is the sum of the following terms:

     one-electron contribution =     -17.61315039 Ry
     hartree contribution      =       2.35975144 Ry
     xc contribution           =      -4.02739020 Ry
     ewald contribution        =     -12.26103852 Ry
     one-center paw contrib.   =       2.00945617 Ry
     smearing contrib. (-TS)   =      -0.00006030 Ry

     convergence has been achieved in   4 iterations

     Forces acting on atoms (cartesian axes, Ry/au):

     atom    1 type  1   force =     0.00000000    0.00000000    0.00000000

     Total force =     0.000000     Total SCF correction =     0.000000


     Computing stress (Cartesian axis) and pressure

          total   stress  (Ry/bohr**3)                   (kbar)     P=    1.72
   0.00001167  -0.00000000  -0.00000000          1.72     -0.00     -0.00
  -0.00000000   0.00001167   0.00000000         -0.00      1.72      0.00
  -0.00000000   0.00000000   0.00001167         -0.00      0.00      1.72


     BFGS Geometry Optimization

     number of scf cycles    =   1
     number of bfgs steps    =   0

     enthalpy new            =     -29.5324318069 Ry

     new trust radius        =       0.0004269282 bohr
     new conv_thr            =       0.0000000100 Ry

     new unit-cell volume =     53.58917 a.u.^3 (     7.94110 Ang^3 )
     density =      1.88451 g/cm^3

CELL_PARAMETERS (alat=  5.98300000)
  -0.500145863   0.000000000   0.500145863
  -0.000000000   0.500145863   0.500145863
  -0.500145863   0.500145863   0.000000000

ATOMIC_POSITIONS (alat)
Be       0.000000000   0.000000000   0.000000000



     Writing output data file relax.save/
     NEW-OLD atomic charge density approx. for the potential
     extrapolated charge    4.00350, renormalised to    4.00000

     total cpu time spent up to now is        1.6 secs

     Self-consistent Calculation

     iteration #  1     ecut=    40.00 Ry     beta= 0.70
     Davidson diagonalization with overlap
     ethr =  1.00E-06,  avg # of iterations =  2.0

     Threshold (ethr) on eigenvalues was too large:
     Diagonalizing with lowered threshold

     Davidson diagonalization with overlap
     ethr =  1.88E-10,  avg # of iterations =  1.2

     total cpu time spent up to now is        1.7 secs

     End of self-consistent calculation

          k = 0.0000 0.0000 0.0000 (   259 PWs)   bands (ev):

   -90.9283  -2.1356  28.9814  28.9814  28.9814  38.7402

          k =-0.1250 0.1250-0.1250 (   232 PWs)   bands (ev):

   -90.9247  -1.6210  25.3597  28.2403  28.2403  36.8617

          k =-0.2499 0.2499-0.2499 (   232 PWs)   bands (ev):

   -90.9163  -0.0827  18.8036  27.0497  27.0497  38.0451

          k =-0.3749 0.3749-0.3749 (   232 PWs)   bands (ev):

   -90.9079   2.3751  12.9017  26.2978  26.2978  36.8665

          k = 0.4999-0.4999 0.4999 (   228 PWs)   bands (ev):

   -90.9043   4.4165   9.6725  26.0703  26.0703  35.8802

          k = 0.0000 0.2499 0.0000 (   230 PWs)   bands (ev):

   -90.9235  -1.4475  26.2271  26.2271  28.8842  33.2161

          k =-0.1250 0.3749-0.1250 (   228 PWs)   bands (ev):

   -90.9168  -0.2417  21.1733  24.5710  28.1065  33.0907

          k =-0.2499 0.4999-0.2499 (   228 PWs)   bands (ev):

   -90.9083   1.9616  14.9895  23.8813  26.1520  31.9040

          k = 0.6248-0.3749 0.6248 (   233 PWs)   bands (ev):

   -90.9032   4.6448  10.3461  24.1977  24.2642  31.7801

          k = 0.4999-0.2499 0.4999 (   230 PWs)   bands (ev):

   -90.9043   3.8257  11.5214  23.0569  25.5994  33.0208

          k = 0.3749-0.1250 0.3749 (   223 PWs)   bands (ev):

   -90.9111   1.1248  16.8169  22.9912  27.4757  35.5447

          k = 0.2499 0.0000 0.2499 (   233 PWs)   bands (ev):

   -90.9196  -0.7604  22.6783  24.3524  28.8766  36.8010

          k = 0.0000 0.4999 0.0000 (   234 PWs)   bands (ev):

   -90.9126   0.6316  22.4746  22.4746  25.9016  28.5730

          k =-0.1250 0.6248-0.1250 (   226 PWs)   bands (ev):

   -90.9057   2.5287  17.7965  21.4346  22.4319  29.4808

          k = 0.7498-0.2499 0.7498 (   231 PWs)   bands (ev):

   -90.9005   5.3217  12.3141  19.8856  21.5903  30.3002

          k = 0.6248-0.1250 0.6248 (   230 PWs)   bands (ev):

   -90.9000   6.3669  10.5351  18.6361  22.9201  31.2222

          k = 0.4999 0.0000 0.4999 (   222 PWs)   bands (ev):

   -90.9043   3.3913  14.2201  19.2618  25.2051  32.9276

          k = 0.0000 0.7498 0.0000 (   226 PWs)   bands (ev):

   -90.9013   4.0333  18.1725  19.9979  19.9979  25.7748

          k = 0.8747-0.1250 0.8747 (   228 PWs)   bands (ev):

   -90.8978   6.3504  14.3339  17.2508  19.7757  28.0589

          k = 0.7498 0.0000 0.7498 (   224 PWs)   bands (ev):

   -90.8973   8.8399  10.1084  16.2314  20.7882  30.1321

          k = 0.0000-0.9997 0.0000 (   222 PWs)   bands (ev):

   -90.8967   7.0244  13.4941  19.1512  19.1512  24.8411

          k =-0.2499 0.4999 0.0000 (   223 PWs)   bands (ev):

   -90.9100   1.3183  18.5257  21.2933  26.0452  33.5677

          k = 0.6248-0.3749 0.8747 (   230 PWs)   bands (ev):

   -90.9033   3.8679  13.5122  20.2536  23.4522  32.6276

          k = 0.4999-0.2499 0.7498 (   232 PWs)   bands (ev):

   -90.9004   6.2155  10.1109  20.3287  22.2334  32.2669

          k = 0.7498-0.2499 0.9997 (   226 PWs)   bands (ev):

   -90.9005   4.7471  15.8993  17.3796  20.7155  31.6284

          k = 0.6248-0.1250 0.8747 (   227 PWs)   bands (ev):

   -90.8977   7.7699  11.3876  16.0115  20.3595  32.6375

          k = 0.4999 0.0000 0.7498 (   227 PWs)   bands (ev):

   -90.8988   6.8414  11.5399  16.6476  21.3557  33.0782

          k =-0.2499-0.9997 0.0000 (   226 PWs)   bands (ev):

   -90.8966   7.9329  13.1281  15.0122  19.4874  30.7579

          k =-0.4999-0.9997 0.0000 (   224 PWs)   bands (ev):

   -90.8965  10.6384  10.6384  12.8071  19.7698  34.9887

     the Fermi energy is    10.0330 ev

!    total energy              =     -29.53243160 Ry
     Harris-Foulkes estimate   =     -29.52719731 Ry
     estimated scf accuracy    <          7.5E-09 Ry

     total all-electron energy =       -29.532432 Ry

     The total energy is the sum of the following terms:

     one-electron contribution =     -17.61847407 Ry
     hartree contribution      =       2.36061913 Ry
     xc contribution           =      -4.02702011 Ry
     ewald contribution        =     -12.25746269 Ry
     one-center paw contrib.   =       2.00996649 Ry
     smearing contrib. (-TS)   =      -0.00006035 Ry

     convergence has been achieved in   1 iterations

     Forces acting on atoms (cartesian axes, Ry/au):

     atom    1 type  1   force =     0.00000000    0.00000000    0.00000000

     Total force =     0.000000     Total SCF correction =     0.000000


     Computing stress (Cartesian axis) and pressure

          total   stress  (Ry/bohr**3)                   (kbar)     P=   19.94
   0.00013554   0.00000000   0.00000000         19.94      0.00      0.00
   0.00000000   0.00013554   0.00000000          0.00     19.94      0.00
   0.00000000   0.00000000   0.00013554          0.00      0.00     19.94


     number of scf cycles    =   2
     number of bfgs steps    =   1

     enthalpy old            =     -29.5324318069 Ry
     enthalpy new            =     -29.5324316029 Ry

     CASE: enthalpy_new > enthalpy_old

     new trust radius        =       0.0001554880 bohr
     new conv_thr            =       0.0000000100 Ry

     new unit-cell volume =     53.55936 a.u.^3 (     7.93668 Ang^3 )
     density =      1.88556 g/cm^3

CELL_PARAMETERS (alat=  5.98300000)
  -0.500053116   0.000000000   0.500053116
  -0.000000000   0.500053116   0.500053116
  -0.500053116   0.500053116   0.000000000

ATOMIC_POSITIONS (alat)
Be       0.000000000   0.000000000   0.000000000



     Writing output data file relax.save/
     NEW-OLD atomic charge density approx. for the potential
     extrapolated charge    3.99777, renormalised to    4.00000

     total cpu time spent up to now is        1.8 secs

     Self-consistent Calculation

     iteration #  1     ecut=    40.00 Ry     beta= 0.70
     Davidson diagonalization with overlap
     ethr =  1.00E-06,  avg # of iterations =  2.0

     Threshold (ethr) on eigenvalues was too large:
     Diagonalizing with lowered threshold

     Davidson diagonalization with overlap
     ethr =  3.93E-10,  avg # of iterations =  1.0

     total cpu time spent up to now is        1.9 secs

     total energy              =     -29.53243194 Ry
     Harris-Foulkes estimate   =     -29.53577128 Ry
     estimated scf accuracy    <       0.00000002 Ry

     iteration #  2     ecut=    40.00 Ry     beta= 0.70
     Davidson diagonalization with overlap
     ethr =  3.91E-10,  avg # of iterations =  2.6

     total cpu time spent up to now is        1.9 secs

     End of self-consistent calculation

          k = 0.0000 0.0000 0.0000 (   259 PWs)   bands (ev):

   -90.8848  -2.1259  28.9957  28.9957  28.9957  38.7607

          k =-0.1250 0.1250-0.1250 (   232 PWs)   bands (ev):

   -90.8812  -1.6113  25.3742  28.2544  28.2544  36.8817

          k =-0.2500 0.2500-0.2500 (   232 PWs)   bands (ev):

   -90.8728  -0.0733  18.8175  27.0636  27.0636  38.0668

          k =-0.3750 0.3750-0.3750 (   232 PWs)   bands (ev):

   -90.8643   2.3842  12.9150  26.3114  26.3114  36.8868

          k = 0.4999-0.4999 0.4999 (   228 PWs)   bands (ev):

   -90.8607   4.4245   9.6865  26.0837  26.0837  35.9003

          k = 0.0000 0.2500 0.0000 (   230 PWs)   bands (ev):

   -90.8801  -1.4379  26.2410  26.2410  28.8994  33.2351

          k =-0.1250 0.3750-0.1250 (   228 PWs)   bands (ev):

   -90.8733  -0.2322  21.1870  24.5845  28.1218  33.1099

          k =-0.2500 0.4999-0.2500 (   228 PWs)   bands (ev):

   -90.8648   1.9709  15.0025  23.8946  26.1670  31.9235

          k = 0.6249-0.3750 0.6249 (   233 PWs)   bands (ev):

   -90.8596   4.6533  10.3593  24.2125  24.2775  31.7992

          k = 0.4999-0.2500 0.4999 (   230 PWs)   bands (ev):

   -90.8608   3.8346  11.5342  23.0716  25.6129  33.0401

          k = 0.3750-0.1250 0.3750 (   223 PWs)   bands (ev):

   -90.8676   1.1342  16.8298  23.0060  27.4895  35.5647

          k = 0.2500 0.0000 0.2500 (   233 PWs)   bands (ev):

   -90.8762  -0.7509  22.6917  24.3675  28.8905  36.8202

          k = 0.0000 0.4999 0.0000 (   234 PWs)   bands (ev):

   -90.8690   0.6411  22.4876  22.4876  25.9176  28.5904

          k =-0.1250 0.6249-0.1250 (   226 PWs)   bands (ev):

   -90.8621   2.5381  17.8090  21.4472  22.4475  29.4994

          k = 0.7499-0.2500 0.7499 (   231 PWs)   bands (ev):

   -90.8569   5.3310  12.3258  19.9012  21.6029  30.3204

          k = 0.6249-0.1250 0.6249 (   230 PWs)   bands (ev):

   -90.8564   6.3761  10.5463  18.6521  22.9331  31.2422

          k = 0.4999 0.0000 0.4999 (   222 PWs)   bands (ev):

   -90.8607   3.4007  14.2310  19.2782  25.2186  32.9473

          k = 0.0000 0.7499 0.0000 (   226 PWs)   bands (ev):

   -90.8577   4.0426  18.1873  20.0102  20.0102  25.7912

          k = 0.8749-0.1250 0.8749 (   228 PWs)   bands (ev):

   -90.8542   6.3595  14.3462  17.2653  19.7878  28.0768

          k = 0.7499 0.0000 0.7499 (   224 PWs)   bands (ev):

   -90.8537   8.8490  10.1185  16.2480  20.8006  30.1530

          k = 0.0000-0.9999 0.0000 (   222 PWs)   bands (ev):

   -90.8531   7.0329  13.5090  19.1632  19.1632  24.8571

          k =-0.2500 0.4999 0.0000 (   223 PWs)   bands (ev):

   -90.8665   1.3277  18.5380  21.3079  26.0606  33.5868

          k = 0.6249-0.3750 0.8749 (   230 PWs)   bands (ev):

   -90.8597   3.8772  13.5240  20.2676  23.4679  32.6458

          k = 0.4999-0.2500 0.7499 (   232 PWs)   bands (ev):

   -90.8569   6.2241  10.1232  20.3419  22.2498  32.2847

          k = 0.7499-0.2500 0.9999 (   226 PWs)   bands (ev):

   -90.8569   4.7565  15.9108  17.3921  20.7322  31.6462

          k = 0.6249-0.1250 0.8749 (   227 PWs)   bands (ev):

   -90.8541   7.7793  11.3982  16.0243  20.3768  32.6566

          k = 0.4999 0.0000 0.7499 (   227 PWs)   bands (ev):

   -90.8552   6.8510  11.5499  16.6617  21.3724  33.0966

          k =-0.2500-0.9999-0.0000 (   226 PWs)   bands (ev):

   -90.8530   7.9417  13.1411  15.0233  19.5035  30.7754

          k =-0.4999-0.9999 0.0000 (   224 PWs)   bands (ev):

   -90.8529  10.6481  10.6481  12.8186  19.7893  35.0068

     the Fermi energy is    10.0445 ev

!    total energy              =     -29.53243196 Ry
     Harris-Foulkes estimate   =     -29.53243210 Ry
     estimated scf accuracy    <          1.2E-10 Ry

     total all-electron energy =       -29.532432 Ry

     The total energy is the sum of the following terms:

     one-electron contribution =     -17.61474778 Ry
     hartree contribution      =       2.36004334 Ry
     xc contribution           =      -4.02723426 Ry
     ewald contribution        =     -12.25973615 Ry
     one-center paw contrib.   =       2.00930320 Ry
     smearing contrib. (-TS)   =      -0.00006031 Ry

     convergence has been achieved in   2 iterations

     Forces acting on atoms (cartesian axes, Ry/au):

     atom    1 type  1   force =     0.00000000    0.00000000    0.00000000

     Total force =     0.000000     Total SCF correction =     0.000000


     Computing stress (Cartesian axis) and pressure

          total   stress  (Ry/bohr**3)                   (kbar)     P=   -3.61
  -0.00002457  -0.00000000  -0.00000000         -3.61     -0.00     -0.00
  -0.00000000  -0.00002457   0.00000000         -0.00     -3.61      0.00
  -0.00000000   0.00000000  -0.00002457         -0.00      0.00     -3.61


     number of scf cycles    =   3
     number of bfgs steps    =   1

     enthalpy old            =     -29.5324318069 Ry
     enthalpy new            =     -29.5324319567 Ry

     CASE: enthalpy_new < enthalpy_old

     new trust radius        =       0.0001054204 bohr
     new conv_thr            =            1.0E-10 Ry

     new unit-cell volume =     53.54779 a.u.^3 (     7.93496 Ang^3 )
     density =      1.88597 g/cm^3

CELL_PARAMETERS (alat=  5.98300000)
  -0.500017100   0.000000000   0.500017100
  -0.000000000   0.500017100   0.500017100
  -0.500017100   0.500017100   0.000000000

ATOMIC_POSITIONS (alat)
Be       0.000000000   0.000000000   0.000000000



     Writing output data file relax.save/
     NEW-OLD atomic charge density approx. for the potential
     extrapolated charge    3.99914, renormalised to    4.00000

     total cpu time spent up to now is        2.1 secs

     Self-consistent Calculation

     iteration #  1     ecut=    40.00 Ry     beta= 0.70
     Davidson diagonalization with overlap
     ethr =  1.00E-06,  avg # of iterations =  2.0

     Threshold (ethr) on eigenvalues was too large:
     Diagonalizing with lowered threshold

     Davidson diagonalization with overlap
     ethr =  2.36E-11,  avg # of iterations =  1.0

     total cpu time spent up to now is        2.2 secs

     total energy              =     -29.53243186 Ry
     Harris-Foulkes estimate   =     -29.53372703 Ry
     estimated scf accuracy    <          9.4E-10 Ry

     iteration #  2     ecut=    40.00 Ry     beta= 0.70
     Davidson diagonalization with overlap
     ethr =  2.35E-11,  avg # of iterations =  2.9

     total cpu time spent up to now is        2.2 secs

     total energy              =     -29.53243187 Ry
     Harris-Foulkes estimate   =     -29.53243188 Ry
     estimated scf accuracy    <          1.6E-10 Ry

     iteration #  3     ecut=    40.00 Ry     beta= 0.70
     Davidson diagonalization with overlap
     ethr =  3.96E-12,  avg # of iterations =  2.0

     total cpu time spent up to now is        2.3 secs

     End of self-consistent calculation

          k = 0.0000 0.0000 0.0000 (   259 PWs)   bands (ev):

   -90.8891  -2.1252  29.0009  29.0009  29.0009  38.7670

          k =-0.1250 0.1250-0.1250 (   232 PWs)   bands (ev):

   -90.8855  -1.6106  25.3788  28.2595  28.2595  36.8877

          k =-0.2500 0.2500-0.2500 (   232 PWs)   bands (ev):

   -90.8771  -0.0724  18.8211  27.0684  27.0684  38.0731

          k =-0.3750 0.3750-0.3750 (   232 PWs)   bands (ev):

   -90.8686   2.3854  12.9178  26.3161  26.3161  36.8928

          k = 0.5000-0.5000 0.5000 (   228 PWs)   bands (ev):

   -90.8650   4.4258   9.6890  26.0884  26.0884  35.9061

          k = 0.0000 0.2500 0.0000 (   230 PWs)   bands (ev):

   -90.8843  -1.4371  26.2457  26.2457  28.9046  33.2405

          k =-0.1250 0.3750-0.1250 (   228 PWs)   bands (ev):

   -90.8776  -0.2313  21.1909  24.5889  28.1270  33.1153

          k =-0.2500 0.5000-0.2500 (   228 PWs)   bands (ev):

   -90.8691   1.9720  15.0056  23.8989  26.1718  31.9288

          k = 0.6250-0.3750 0.6250 (   233 PWs)   bands (ev):

   -90.8639   4.6547  10.3618  24.2170  24.2819  31.8045

          k = 0.5000-0.2500 0.5000 (   230 PWs)   bands (ev):

   -90.8650   3.8359  11.5368  23.0758  25.6175  33.0455

          k = 0.3750-0.1250 0.3750 (   223 PWs)   bands (ev):

   -90.8718   1.1352  16.8331  23.0103  27.4944  35.5705

          k = 0.2500 0.0000 0.2500 (   233 PWs)   bands (ev):

   -90.8804  -0.7500  22.6958  24.3720  28.8957  36.8263

          k = 0.0000 0.5000 0.0000 (   234 PWs)   bands (ev):

   -90.8733   0.6421  22.4917  22.4917  25.9224  28.5951

          k =-0.1250 0.6250-0.1250 (   226 PWs)   bands (ev):

   -90.8664   2.5393  17.8124  21.4512  22.4517  29.5044

          k = 0.7500-0.2500 0.7500 (   231 PWs)   bands (ev):

   -90.8612   5.3325  12.3283  19.9050  21.6069  30.3258

          k = 0.6250-0.1250 0.6250 (   230 PWs)   bands (ev):

   -90.8607   6.3777  10.5486  18.6558  22.9373  31.2476

          k = 0.5000 0.0000 0.5000 (   222 PWs)   bands (ev):

   -90.8650   3.4020  14.2338  19.2821  25.2232  32.9528

          k = 0.0000 0.7500 0.0000 (   226 PWs)   bands (ev):

   -90.8620   4.0440  18.1907  20.0139  20.0139  25.7955

          k = 0.8750-0.1250 0.8750 (   228 PWs)   bands (ev):

   -90.8585   6.3612  14.3490  17.2688  19.7915  28.0816

          k = 0.7500 0.0000 0.7500 (   224 PWs)   bands (ev):

   -90.8580   8.8509  10.1206  16.2514  20.8045  30.1584

          k = 0.0000-1.0000 0.0000 (   222 PWs)   bands (ev):

   -90.8574   7.0346  13.5119  19.1668  19.1668  24.8613

          k =-0.2500 0.5000 0.0000 (   223 PWs)   bands (ev):

   -90.8707   1.3288  18.5414  21.3119  26.0654  33.5924

          k = 0.6250-0.3750 0.8750 (   230 PWs)   bands (ev):

   -90.8640   3.8786  13.5268  20.2714  23.4724  32.6513

          k = 0.5000-0.2500 0.7500 (   232 PWs)   bands (ev):

   -90.8611   6.2257  10.1256  20.3456  22.2542  32.2901

          k = 0.7500-0.2500 1.0000 (   226 PWs)   bands (ev):

   -90.8612   4.7580  15.9138  17.3953  20.7363  31.6515

          k = 0.6250-0.1250 0.8750 (   227 PWs)   bands (ev):

   -90.8584   7.7811  11.4006  16.0273  20.3810  32.6622

          k = 0.5000 0.0000 0.7500 (   227 PWs)   bands (ev):

   -90.8595   6.8527  11.5523  16.6650  21.3767  33.1022

          k =-0.2500-1.0000-0.0000 (   226 PWs)   bands (ev):

   -90.8573   7.9435  13.1437  15.0262  19.5075  30.7805

          k =-0.5000-1.0000 0.0000 (   224 PWs)   bands (ev):

   -90.8572  10.6504  10.6504  12.8210  19.7936  35.0127

     the Fermi energy is    10.0468 ev

!    total energy              =     -29.53243187 Ry
     Harris-Foulkes estimate   =     -29.53243187 Ry
     estimated scf accuracy    <          3.5E-11 Ry

     total all-electron energy =       -29.532432 Ry

     The total energy is the sum of the following terms:

     one-electron contribution =     -17.61369890 Ry
     hartree contribution      =       2.35985894 Ry
     xc contribution           =      -4.02734390 Ry
     ewald contribution        =     -12.26061920 Ry
     one-center paw contrib.   =       2.00943151 Ry
     smearing contrib. (-TS)   =      -0.00006031 Ry

     convergence has been achieved in   3 iterations

     Forces acting on atoms (cartesian axes, Ry/au):

     atom    1 type  1   force =     0.00000000    0.00000000    0.00000000

     Total force =     0.000000     Total SCF correction =     0.000000


     Computing stress (Cartesian axis) and pressure

          total   stress  (Ry/bohr**3)                   (kbar)     P=    0.93
   0.00000629  -0.00000000   0.00000000          0.93     -0.00      0.00
  -0.00000000   0.00000629   0.00000000         -0.00      0.93      0.00
   0.00000000   0.00000000   0.00000629          0.00      0.00      0.93


     number of scf cycles    =   4
     number of bfgs steps    =   2

     enthalpy old            =     -29.5324319567 Ry
     enthalpy new            =     -29.5324318663 Ry

     CASE: enthalpy_new > enthalpy_old

     new trust radius        =       0.0000399933 bohr

     trust_radius < trust_radius_min

     resetting bfgs history

     new conv_thr            =            1.0E-10 Ry

     new unit-cell volume =     53.46071 a.u.^3 (     7.92206 Ang^3 )
     density =      1.88904 g/cm^3

CELL_PARAMETERS (alat=  5.98300000)
  -0.499745913   0.000000000   0.499745913
  -0.000000000   0.499745913   0.499745913
  -0.499745913   0.499745913   0.000000000

ATOMIC_POSITIONS (alat)
Be       0.000000000   0.000000000   0.000000000



     Writing output data file relax.save/
     NEW-OLD atomic charge density approx. for the potential
     extrapolated charge    3.99348, renormalised to    4.00000

     total cpu time spent up to now is        2.4 secs

     Self-consistent Calculation

     iteration #  1     ecut=    40.00 Ry     beta= 0.70
     Davidson diagonalization with overlap
     ethr =  1.00E-06,  avg # of iterations =  2.0

     Threshold (ethr) on eigenvalues was too large:
     Diagonalizing with lowered threshold

     Davidson diagonalization with overlap
     ethr =  6.77E-10,  avg # of iterations =  1.1

     total cpu time spent up to now is        2.5 secs

     total energy              =     -29.53243003 Ry
     Harris-Foulkes estimate   =     -29.54220940 Ry
     estimated scf accuracy    <       0.00000003 Ry

     iteration #  2     ecut=    40.00 Ry     beta= 0.70
     Davidson diagonalization with overlap
     ethr =  6.77E-10,  avg # of iterations =  3.0

     total cpu time spent up to now is        2.6 secs

     total energy              =     -29.53243052 Ry
     Harris-Foulkes estimate   =     -29.53243113 Ry
     estimated scf accuracy    <       0.00000001 Ry

     iteration #  3     ecut=    40.00 Ry     beta= 0.70
     Davidson diagonalization with overlap
     ethr =  2.52E-10,  avg # of iterations =  2.0

     total cpu time spent up to now is        2.6 secs

     total energy              =     -29.53243041 Ry
     Harris-Foulkes estimate   =     -29.53243055 Ry
     estimated scf accuracy    <          2.4E-09 Ry

     iteration #  4     ecut=    40.00 Ry     beta= 0.70
     Davidson diagonalization with overlap
     ethr =  5.88E-11,  avg # of iterations =  2.0

     total cpu time spent up to now is        2.7 secs

     total energy              =     -29.53243036 Ry
     Harris-Foulkes estimate   =     -29.53243042 Ry
     estimated scf accuracy    <          7.0E-10 Ry

     iteration #  5     ecut=    40.00 Ry     beta= 0.70
     Davidson diagonalization with overlap
     ethr =  1.74E-11,  avg # of iterations =  2.0

     total cpu time spent up to now is        2.7 secs

     End of self-consistent calculation

          k = 0.0000 0.0000 0.0000 (   259 PWs)   bands (ev):

   -90.8691  -2.1174  29.0434  29.0434  29.0434  38.8145

          k =-0.1251 0.1251-0.1251 (   232 PWs)   bands (ev):

   -90.8655  -1.6025  25.4158  28.3008  28.3008  36.9343

          k =-0.2501 0.2501-0.2501 (   232 PWs)   bands (ev):

   -90.8570  -0.0633  18.8502  27.1080  27.1080  38.1223

          k =-0.3752 0.3752-0.3752 (   232 PWs)   bands (ev):

   -90.8485   2.3957  12.9413  26.3549  26.3549  36.9380

          k = 0.5003-0.5003 0.5003 (   228 PWs)   bands (ev):

   -90.8448   4.4363   9.7108  26.1270  26.1270  35.9500

          k = 0.0000 0.2501 0.0000 (   230 PWs)   bands (ev):

   -90.8643  -1.4289  26.2837  26.2837  28.9483  33.2813

          k =-0.1251 0.3752-0.1251 (   228 PWs)   bands (ev):

   -90.8576  -0.2223  21.2224  24.6247  28.1698  33.1566

          k =-0.2501 0.5003-0.2501 (   228 PWs)   bands (ev):

   -90.8490   1.9823  15.0305  23.9339  26.2114  31.9689

          k = 0.6253-0.3752 0.6253 (   233 PWs)   bands (ev):

   -90.8437   4.6659  10.3833  24.2534  24.3175  31.8450

          k = 0.5003-0.2501 0.5003 (   230 PWs)   bands (ev):

   -90.8449   3.8471  11.5587  23.1108  25.6552  33.0874

          k = 0.3752-0.1251 0.3752 (   223 PWs)   bands (ev):

   -90.8517   1.1450  16.8595  23.0452  27.5349  35.6150

          k = 0.2501 0.0000 0.2501 (   233 PWs)   bands (ev):

   -90.8604  -0.7414  22.7283  24.4088  28.9385  36.8736

          k = 0.0000 0.5003 0.0000 (   234 PWs)   bands (ev):

   -90.8532   0.6517  22.5247  22.5247  25.9611  28.6308

          k =-0.1251 0.6253-0.1251 (   226 PWs)   bands (ev):

   -90.8463   2.5502  17.8393  21.4829  22.4854  29.5438

          k = 0.7504-0.2501 0.7504 (   231 PWs)   bands (ev):

   -90.8410   5.3452  12.3495  19.9364  21.6389  30.3683

          k = 0.6253-0.1251 0.6253 (   230 PWs)   bands (ev):

   -90.8405   6.3909  10.5680  18.6867  22.9710  31.2906

          k = 0.5003 0.0000 0.5003 (   222 PWs)   bands (ev):

   -90.8448   3.4134  14.2559  19.3143  25.2601  32.9962

          k = 0.0000 0.7504 0.0000 (   226 PWs)   bands (ev):

   -90.8418   4.0560  18.2186  20.0438  20.0438  25.8282

          k = 0.8754-0.1251 0.8754 (   228 PWs)   bands (ev):

   -90.8383   6.3748  14.3712  17.2973  19.8212  28.1191

          k = 0.7504 0.0000 0.7504 (   224 PWs)   bands (ev):

   -90.8378   8.8669  10.1376  16.2805  20.8354  30.2018

          k = 0.0000-1.0005 0.0000 (   222 PWs)   bands (ev):

   -90.8372   7.0485  13.5355  19.1957  19.1957  24.8929

          k =-0.2501 0.5003 0.0000 (   223 PWs)   bands (ev):

   -90.8506   1.3388  18.5687  21.3447  26.1046  33.6359

          k = 0.6253-0.3752 0.8754 (   230 PWs)   bands (ev):

   -90.8438   3.8903  13.5492  20.3020  23.5090  32.6940

          k = 0.5003-0.2501 0.7504 (   232 PWs)   bands (ev):

   -90.8409   6.2382  10.1460  20.3748  22.2908  32.3324

          k = 0.7504-0.2501 1.0005 (   226 PWs)   bands (ev):

   -90.8410   4.7705  15.9380  17.4206  20.7714  31.6919

          k = 0.6253-0.1251 0.8754 (   227 PWs)   bands (ev):

   -90.8382   7.7960  11.4198  16.0518  20.4167  32.7066

          k = 0.5003 0.0000 0.7504 (   227 PWs)   bands (ev):

   -90.8393   6.8668  11.5713  16.6916  21.4126  33.1463

          k =-0.2501-1.0005-0.0000 (   226 PWs)   bands (ev):

   -90.8371   7.9584  13.1650  15.0494  19.5411  30.8200

          k =-0.5003-1.0005 0.0000 (   224 PWs)   bands (ev):

   -90.8370  10.6683  10.6683  12.8405  19.8312  35.0597

     the Fermi energy is    10.0658 ev

!    total energy              =     -29.53243037 Ry
     Harris-Foulkes estimate   =     -29.53243037 Ry
     estimated scf accuracy    <          1.4E-12 Ry

     total all-electron energy =       -29.532430 Ry

     The total energy is the sum of the following terms:

     one-electron contribution =     -17.60480827 Ry
     hartree contribution      =       2.35817257 Ry
     xc contribution           =      -4.02806127 Ry
     ewald contribution        =     -12.26727243 Ry
     one-center paw contrib.   =       2.00959922 Ry
     smearing contrib. (-TS)   =      -0.00006020 Ry

     convergence has been achieved in   5 iterations

     Forces acting on atoms (cartesian axes, Ry/au):

     atom    1 type  1   force =     0.00000000    0.00000000    0.00000000

     Total force =     0.000000     Total SCF correction =     0.000000


     Computing stress (Cartesian axis) and pressure

          total   stress  (Ry/bohr**3)                   (kbar)     P=    3.47
   0.00002356  -0.00000000  -0.00000000          3.47     -0.00     -0.00
  -0.00000000   0.00002356   0.00000000         -0.00      3.47      0.00
  -0.00000000   0.00000000   0.00002356         -0.00      0.00      3.47


     number of scf cycles    =   5
     number of bfgs steps    =   2

     enthalpy old            =     -29.5324319567 Ry
     enthalpy new            =     -29.5324303698 Ry

     CASE: enthalpy_new > enthalpy_old

     new trust radius        =       0.0002717043 bohr
     new conv_thr            =            1.0E-10 Ry

     new unit-cell volume =     53.52953 a.u.^3 (     7.93226 Ang^3 )
     density =      1.88661 g/cm^3

CELL_PARAMETERS (alat=  5.98300000)
  -0.499960262   0.000000000   0.499960262
  -0.000000000   0.499960262   0.499960262
  -0.499960262   0.499960262   0.000000000

ATOMIC_POSITIONS (alat)
Be       0.000000000   0.000000000   0.000000000



     Writing output data file relax.save/
     NEW-OLD atomic charge density approx. for the potential
     extrapolated charge    4.00514, renormalised to    4.00000

     total cpu time spent up to now is        2.9 secs

     Self-consistent Calculation

     iteration #  1     ecut=    40.00 Ry     beta= 0.70
     Davidson diagonalization with overlap
     ethr =  1.00E-06,  avg # of iterations =  2.0

     Threshold (ethr) on eigenvalues was too large:
     Diagonalizing with lowered threshold

     Davidson diagonalization with overlap
     ethr =  4.26E-10,  avg # of iterations =  1.1

     total cpu time spent up to now is        3.0 secs

     total energy              =     -29.53243143 Ry
     Harris-Foulkes estimate   =     -29.52474587 Ry
     estimated scf accuracy    <       0.00000002 Ry

     iteration #  2     ecut=    40.00 Ry     beta= 0.70
     Davidson diagonalization with overlap
     ethr =  4.26E-10,  avg # of iterations =  3.0

     total cpu time spent up to now is        3.0 secs

     total energy              =     -29.53243174 Ry
     Harris-Foulkes estimate   =     -29.53243212 Ry
     estimated scf accuracy    <          6.3E-09 Ry

     iteration #  3     ecut=    40.00 Ry     beta= 0.70
     Davidson diagonalization with overlap
     ethr =  1.58E-10,  avg # of iterations =  2.0

     total cpu time spent up to now is        3.1 secs

     total energy              =     -29.53243167 Ry
     Harris-Foulkes estimate   =     -29.53243176 Ry
     estimated scf accuracy    <          1.4E-09 Ry

     iteration #  4     ecut=    40.00 Ry     beta= 0.70
     Davidson diagonalization with overlap
     ethr =  3.62E-11,  avg # of iterations =  2.0

     total cpu time spent up to now is        3.1 secs

     total energy              =     -29.53243165 Ry
     Harris-Foulkes estimate   =     -29.53243168 Ry
     estimated scf accuracy    <          4.0E-10 Ry

     iteration #  5     ecut=    40.00 Ry     beta= 0.70
     Davidson diagonalization with overlap
     ethr =  1.00E-11,  avg # of iterations =  2.0

     total cpu time spent up to now is        3.2 secs

     End of self-consistent calculation

          k = 0.0000 0.0000 0.0000 (   259 PWs)   bands (ev):

   -90.8858  -2.1236  29.0097  29.0097  29.0097  38.7770

          k =-0.1250 0.1250-0.1250 (   232 PWs)   bands (ev):

   -90.8821  -1.6089  25.3865  28.2681  28.2681  36.8975

          k =-0.2500 0.2500-0.2500 (   232 PWs)   bands (ev):

   -90.8738  -0.0705  18.8271  27.0767  27.0767  38.0834

          k =-0.3750 0.3750-0.3750 (   232 PWs)   bands (ev):

   -90.8652   2.3875  12.9227  26.3242  26.3242  36.9023

          k = 0.5000-0.5000 0.5000 (   228 PWs)   bands (ev):

   -90.8616   4.4280   9.6935  26.0965  26.0965  35.9153

          k = 0.0000 0.2500 0.0000 (   230 PWs)   bands (ev):

   -90.8810  -1.4355  26.2536  26.2536  28.9138  33.2491

          k =-0.1250 0.3750-0.1250 (   228 PWs)   bands (ev):

   -90.8743  -0.2295  21.1975  24.5964  28.1359  33.1239

          k =-0.2500 0.5000-0.2500 (   228 PWs)   bands (ev):

   -90.8657   1.9742  15.0108  23.9063  26.1801  31.9372

          k = 0.6250-0.3750 0.6250 (   233 PWs)   bands (ev):

   -90.8605   4.6570  10.3663  24.2246  24.2893  31.8130

          k = 0.5000-0.2500 0.5000 (   230 PWs)   bands (ev):

   -90.8617   3.8383  11.5414  23.0831  25.6254  33.0543

          k = 0.3750-0.1250 0.3750 (   223 PWs)   bands (ev):

   -90.8685   1.1373  16.8386  23.0176  27.5029  35.5798

          k = 0.2500 0.0000 0.2500 (   233 PWs)   bands (ev):

   -90.8771  -0.7483  22.7026  24.3797  28.9047  36.8362

          k = 0.0000 0.5000 0.0000 (   234 PWs)   bands (ev):

   -90.8700   0.6441  22.4986  22.4986  25.9304  28.6026

          k =-0.1250 0.6250-0.1250 (   226 PWs)   bands (ev):

   -90.8630   2.5416  17.8180  21.4578  22.4587  29.5126

          k = 0.7501-0.2500 0.7501 (   231 PWs)   bands (ev):

   -90.8578   5.3351  12.3328  19.9116  21.6136  30.3346

          k = 0.6250-0.1250 0.6250 (   230 PWs)   bands (ev):

   -90.8573   6.3804  10.5526  18.6622  22.9443  31.2566

          k = 0.5000 0.0000 0.5000 (   222 PWs)   bands (ev):

   -90.8616   3.4044  14.2384  19.2888  25.2309  32.9619

          k = 0.0000 0.7501 0.0000 (   226 PWs)   bands (ev):

   -90.8586   4.0465  18.1965  20.0201  20.0201  25.8024

          k = 0.8751-0.1250 0.8751 (   228 PWs)   bands (ev):

   -90.8551   6.3640  14.3536  17.2747  19.7977  28.0894

          k = 0.7501 0.0000 0.7501 (   224 PWs)   bands (ev):

   -90.8546   8.8543  10.1242  16.2575  20.8109  30.1674

          k = 0.0000-1.0001 0.0000 (   222 PWs)   bands (ev):

   -90.8540   7.0375  13.5168  19.1728  19.1728  24.8679

          k =-0.2500 0.5000 0.0000 (   223 PWs)   bands (ev):

   -90.8674   1.3308  18.5471  21.3188  26.0736  33.6015

          k = 0.6250-0.3750 0.8751 (   230 PWs)   bands (ev):

   -90.8606   3.8810  13.5314  20.2778  23.4800  32.6602

          k = 0.5000-0.2500 0.7501 (   232 PWs)   bands (ev):

   -90.8578   6.2283  10.1298  20.3517  22.2618  32.2990

          k = 0.7501-0.2500 1.0001 (   226 PWs)   bands (ev):

   -90.8579   4.7606  15.9189  17.4006  20.7436  31.6599

          k = 0.6250-0.1250 0.8751 (   227 PWs)   bands (ev):

   -90.8550   7.7842  11.4046  16.0324  20.3884  32.6715

          k = 0.5000 0.0000 0.7501 (   227 PWs)   bands (ev):

   -90.8561   6.8556  11.5563  16.6705  21.3842  33.1114

          k =-0.2500-1.0001 0.0000 (   226 PWs)   bands (ev):

   -90.8539   7.9466  13.1481  15.0311  19.5144  30.7888

          k =-0.5000-1.0001 0.0000 (   224 PWs)   bands (ev):

   -90.8538  10.6541  10.6541  12.8251  19.8014  35.0225

     the Fermi energy is    10.0507 ev

!    total energy              =     -29.53243165 Ry
     Harris-Foulkes estimate   =     -29.53243165 Ry
     estimated scf accuracy    <          9.3E-13 Ry

     total all-electron energy =       -29.532432 Ry

     The total energy is the sum of the following terms:

     one-electron contribution =     -17.61185322 Ry
     hartree contribution      =       2.35950977 Ry
     xc contribution           =      -4.02749578 Ry
     ewald contribution        =     -12.26201305 Ry
     one-center paw contrib.   =       2.00948091 Ry
     smearing contrib. (-TS)   =      -0.00006029 Ry

     convergence has been achieved in   5 iterations

     Forces acting on atoms (cartesian axes, Ry/au):

     atom    1 type  1   force =     0.00000000    0.00000000    0.00000000

     Total force =     0.000000     Total SCF correction =     0.000000


     Computing stress (Cartesian axis) and pressure

          total   stress  (Ry/bohr**3)                   (kbar)     P=    1.99
   0.00001354   0.00000000  -0.00000000          1.99      0.00     -0.00
   0.00000000   0.00001354   0.00000000          0.00      1.99      0.00
  -0.00000000   0.00000000   0.00001354         -0.00      0.00      1.99


     number of scf cycles    =   6
     number of bfgs steps    =   2

     enthalpy old            =     -29.5324319567 Ry
     enthalpy new            =     -29.5324316512 Ry

     CASE: enthalpy_new > enthalpy_old

     new trust radius        =       0.0000959115 bohr

     trust_radius < trust_radius_min

     resetting bfgs history

     new conv_thr            =            1.0E-10 Ry

     new unit-cell volume =     53.46070 a.u.^3 (     7.92206 Ang^3 )
     density =      1.88904 g/cm^3

CELL_PARAMETERS (alat=  5.98300000)
  -0.499745878   0.000000000   0.499745878
  -0.000000000   0.499745878   0.499745878
  -0.499745878   0.499745878   0.000000000

ATOMIC_POSITIONS (alat)
Be       0.000000000   0.000000000   0.000000000



     Writing output data file relax.save/
     NEW-OLD atomic charge density approx. for the potential
     extrapolated charge    3.99485, renormalised to    4.00000

     total cpu time spent up to now is        3.3 secs

     Self-consistent Calculation

     iteration #  1     ecut=    40.00 Ry     beta= 0.70
     Davidson diagonalization with overlap
     ethr =  1.00E-06,  avg # of iterations =  2.0

     Threshold (ethr) on eigenvalues was too large:
     Diagonalizing with lowered threshold

     Davidson diagonalization with overlap
     ethr =  4.23E-10,  avg # of iterations =  1.1

     total cpu time spent up to now is        3.4 secs

     total energy              =     -29.53243016 Ry
     Harris-Foulkes estimate   =     -29.54015596 Ry
     estimated scf accuracy    <       0.00000002 Ry

     iteration #  2     ecut=    40.00 Ry     beta= 0.70
     Davidson diagonalization with overlap
     ethr =  4.23E-10,  avg # of iterations =  3.0

     total cpu time spent up to now is        3.5 secs

     total energy              =     -29.53243047 Ry
     Harris-Foulkes estimate   =     -29.53243085 Ry
     estimated scf accuracy    <          6.3E-09 Ry

     iteration #  3     ecut=    40.00 Ry     beta= 0.70
     Davidson diagonalization with overlap
     ethr =  1.58E-10,  avg # of iterations =  2.0

     total cpu time spent up to now is        3.5 secs

     total energy              =     -29.53243039 Ry
     Harris-Foulkes estimate   =     -29.53243048 Ry
     estimated scf accuracy    <          1.5E-09 Ry

     iteration #  4     ecut=    40.00 Ry     beta= 0.70
     Davidson diagonalization with overlap
     ethr =  3.66E-11,  avg # of iterations =  2.0

     total cpu time spent up to now is        3.6 secs

     total energy              =     -29.53243037 Ry
     Harris-Foulkes estimate   =     -29.53243040 Ry
     estimated scf accuracy    <          4.2E-10 Ry

     iteration #  5     ecut=    40.00 Ry     beta= 0.70
     Davidson diagonalization with overlap
     ethr =  1.05E-11,  avg # of iterations =  2.0

     total cpu time spent up to now is        3.6 secs

     End of self-consistent calculation

          k = 0.0000 0.0000 0.0000 (   259 PWs)   bands (ev):

   -90.8691  -2.1174  29.0434  29.0434  29.0434  38.8145

          k =-0.1251 0.1251-0.1251 (   232 PWs)   bands (ev):

   -90.8655  -1.6025  25.4158  28.3008  28.3008  36.9343

          k =-0.2501 0.2501-0.2501 (   232 PWs)   bands (ev):

   -90.8571  -0.0633  18.8502  27.1081  27.1081  38.1223

          k =-0.3752 0.3752-0.3752 (   232 PWs)   bands (ev):

   -90.8485   2.3957  12.9413  26.3549  26.3549  36.9380

          k = 0.5003-0.5003 0.5003 (   228 PWs)   bands (ev):

   -90.8449   4.4363   9.7108  26.1270  26.1270  35.9500

          k = 0.0000 0.2501 0.0000 (   230 PWs)   bands (ev):

   -90.8644  -1.4289  26.2837  26.2837  28.9483  33.2813

          k =-0.1251 0.3752-0.1251 (   228 PWs)   bands (ev):

   -90.8576  -0.2223  21.2224  24.6247  28.1698  33.1566

          k =-0.2501 0.5003-0.2501 (   228 PWs)   bands (ev):

   -90.8490   1.9823  15.0305  23.9339  26.2114  31.9689

          k = 0.6253-0.3752 0.6253 (   233 PWs)   bands (ev):

   -90.8438   4.6659  10.3833  24.2534  24.3175  31.8450

          k = 0.5003-0.2501 0.5003 (   230 PWs)   bands (ev):

   -90.8449   3.8471  11.5587  23.1108  25.6552  33.0874

          k = 0.3752-0.1251 0.3752 (   223 PWs)   bands (ev):

   -90.8518   1.1450  16.8595  23.0452  27.5349  35.6150

          k = 0.2501 0.0000 0.2501 (   233 PWs)   bands (ev):

   -90.8604  -0.7414  22.7283  24.4088  28.9385  36.8736

          k = 0.0000 0.5003 0.0000 (   234 PWs)   bands (ev):

   -90.8533   0.6517  22.5247  22.5247  25.9611  28.6308

          k =-0.1251 0.6253-0.1251 (   226 PWs)   bands (ev):

   -90.8463   2.5502  17.8393  21.4829  22.4854  29.5438

          k = 0.7504-0.2501 0.7504 (   231 PWs)   bands (ev):

   -90.8411   5.3452  12.3495  19.9364  21.6389  30.3683

          k = 0.6253-0.1251 0.6253 (   230 PWs)   bands (ev):

   -90.8405   6.3909  10.5680  18.6867  22.9710  31.2906

          k = 0.5003 0.0000 0.5003 (   222 PWs)   bands (ev):

   -90.8449   3.4134  14.2559  19.3143  25.2601  32.9962

          k = 0.0000 0.7504 0.0000 (   226 PWs)   bands (ev):

   -90.8419   4.0560  18.2186  20.0438  20.0438  25.8282

          k = 0.8754-0.1251 0.8754 (   228 PWs)   bands (ev):

   -90.8383   6.3748  14.3712  17.2973  19.8212  28.1191

          k = 0.7504 0.0000 0.7504 (   224 PWs)   bands (ev):

   -90.8378   8.8669  10.1376  16.2805  20.8354  30.2018

          k = 0.0000-1.0005 0.0000 (   222 PWs)   bands (ev):

   -90.8372   7.0485  13.5355  19.1957  19.1957  24.8929

          k =-0.2501 0.5003 0.0000 (   223 PWs)   bands (ev):

   -90.8507   1.3388  18.5687  21.3447  26.1046  33.6359

          k = 0.6253-0.3752 0.8754 (   230 PWs)   bands (ev):

   -90.8438   3.8903  13.5492  20.3020  23.5090  32.6940

          k = 0.5003-0.2501 0.7504 (   232 PWs)   bands (ev):

   -90.8410   6.2382  10.1460  20.3748  22.2908  32.3324

          k = 0.7504-0.2501 1.0005 (   226 PWs)   bands (ev):

   -90.8411   4.7705  15.9380  17.4206  20.7714  31.6919

          k = 0.6253-0.1251 0.8754 (   227 PWs)   bands (ev):

   -90.8382   7.7960  11.4198  16.0518  20.4167  32.7066

          k = 0.5003 0.0000 0.7504 (   227 PWs)   bands (ev):

   -90.8393   6.8668  11.5713  16.6916  21.4126  33.1463

          k =-0.2501-1.0005 0.0000 (   226 PWs)   bands (ev):

   -90.8371   7.9584  13.1650  15.0494  19.5411  30.8200

          k =-0.5003-1.0005 0.0000 (   224 PWs)   bands (ev):

   -90.8370  10.6683  10.6683  12.8405  19.8312  35.0597

     the Fermi energy is    10.0658 ev

!    total energy              =     -29.53243037 Ry
     Harris-Foulkes estimate   =     -29.53243037 Ry
     estimated scf accuracy    <          9.4E-13 Ry

     total all-electron energy =       -29.532430 Ry

     The total energy is the sum of the following terms:

     one-electron contribution =     -17.60480788 Ry
     hartree contribution      =       2.35817257 Ry
     xc contribution           =      -4.02806144 Ry
     ewald contribution        =     -12.26727329 Ry
     one-center paw contrib.   =       2.00959987 Ry
     smearing contrib. (-TS)   =      -0.00006020 Ry

     convergence has been achieved in   5 iterations

     Forces acting on atoms (cartesian axes, Ry/au):

     atom    1 type  1   force =     0.00000000    0.00000000    0.00000000

     Total force =     0.000000     Total SCF correction =     0.000000


     Computing stress (Cartesian axis) and pressure

          total   stress  (Ry/bohr**3)                   (kbar)     P=    3.49
   0.00002372  -0.00000000   0.00000000          3.49     -0.00      0.00
  -0.00000000   0.00002372  -0.00000000         -0.00      3.49     -0.00
   0.00000000  -0.00000000   0.00002372          0.00     -0.00      3.49


     number of scf cycles    =   7
     number of bfgs steps    =   2

     enthalpy old            =     -29.5324319567 Ry
     enthalpy new            =     -29.5324303696 Ry

     CASE: enthalpy_new > enthalpy_old

     new trust radius        =       0.0002717301 bohr
     new conv_thr            =            1.0E-10 Ry

     new unit-cell volume =     53.52953 a.u.^3 (     7.93226 Ang^3 )
     density =      1.88661 g/cm^3

CELL_PARAMETERS (alat=  5.98300000)
  -0.499960254   0.000000000   0.499960254
  -0.000000000   0.499960254   0.499960254
  -0.499960254   0.499960254   0.000000000

ATOMIC_POSITIONS (alat)
Be       0.000000000   0.000000000   0.000000000



     Writing output data file relax.save/
     NEW-OLD atomic charge density approx. for the potential
     extrapolated charge    4.00514, renormalised to    4.00000

     total cpu time spent up to now is        3.8 secs

     Self-consistent Calculation

     iteration #  1     ecut=    40.00 Ry     beta= 0.70
     Davidson diagonalization with overlap
     ethr =  1.00E-06,  avg # of iterations =  2.0

     Threshold (ethr) on eigenvalues was too large:
     Diagonalizing with lowered threshold

     Davidson diagonalization with overlap
     ethr =  4.26E-10,  avg # of iterations =  1.1

     total cpu time spent up to now is        3.9 secs

     total energy              =     -29.53243143 Ry
     Harris-Foulkes estimate   =     -29.52474493 Ry
     estimated scf accuracy    <       0.00000002 Ry

     iteration #  2     ecut=    40.00 Ry     beta= 0.70
     Davidson diagonalization with overlap
     ethr =  4.27E-10,  avg # of iterations =  3.0

     total cpu time spent up to now is        3.9 secs

     total energy              =     -29.53243174 Ry
     Harris-Foulkes estimate   =     -29.53243212 Ry
     estimated scf accuracy    <          6.3E-09 Ry

     iteration #  3     ecut=    40.00 Ry     beta= 0.70
     Davidson diagonalization with overlap
     ethr =  1.58E-10,  avg # of iterations =  2.0

     total cpu time spent up to now is        4.0 secs

     total energy              =     -29.53243167 Ry
     Harris-Foulkes estimate   =     -29.53243176 Ry
     estimated scf accuracy    <          1.4E-09 Ry

     iteration #  4     ecut=    40.00 Ry     beta= 0.70
     Davidson diagonalization with overlap
     ethr =  3.62E-11,  avg # of iterations =  2.0

     total cpu time spent up to now is        4.0 secs

     total energy              =     -29.53243165 Ry
     Harris-Foulkes estimate   =     -29.53243168 Ry
     estimated scf accuracy    <          4.0E-10 Ry

     iteration #  5     ecut=    40.00 Ry     beta= 0.70
     Davidson diagonalization with overlap
     ethr =  1.00E-11,  avg # of iterations =  2.0

     total cpu time spent up to now is        4.1 secs

     End of self-consistent calculation

          k = 0.0000 0.0000 0.0000 (   259 PWs)   bands (ev):

   -90.8857  -2.1236  29.0098  29.0098  29.0098  38.7770

          k =-0.1250 0.1250-0.1250 (   232 PWs)   bands (ev):

   -90.8821  -1.6089  25.3865  28.2681  28.2681  36.8975

          k =-0.2500 0.2500-0.2500 (   232 PWs)   bands (ev):

   -90.8738  -0.0705  18.8271  27.0767  27.0767  38.0834

          k =-0.3750 0.3750-0.3750 (   232 PWs)   bands (ev):

   -90.8652   2.3875  12.9227  26.3242  26.3242  36.9023

          k = 0.5000-0.5000 0.5000 (   228 PWs)   bands (ev):

   -90.8616   4.4280   9.6935  26.0965  26.0965  35.9153

          k = 0.0000 0.2500 0.0000 (   230 PWs)   bands (ev):

   -90.8810  -1.4355  26.2536  26.2536  28.9138  33.2491

          k =-0.1250 0.3750-0.1250 (   228 PWs)   bands (ev):

   -90.8743  -0.2295  21.1975  24.5964  28.1359  33.1239

          k =-0.2500 0.5000-0.2500 (   228 PWs)   bands (ev):

   -90.8657   1.9742  15.0108  23.9063  26.1801  31.9372

          k = 0.6250-0.3750 0.6250 (   233 PWs)   bands (ev):

   -90.8605   4.6570  10.3663  24.2246  24.2893  31.8130

          k = 0.5000-0.2500 0.5000 (   230 PWs)   bands (ev):

   -90.8617   3.8383  11.5414  23.0831  25.6254  33.0543

          k = 0.3750-0.1250 0.3750 (   223 PWs)   bands (ev):

   -90.8685   1.1373  16.8386  23.0176  27.5029  35.5798

          k = 0.2500 0.0000 0.2500 (   233 PWs)   bands (ev):

   -90.8771  -0.7483  22.7026  24.3797  28.9047  36.8362

          k = 0.0000 0.5000 0.0000 (   234 PWs)   bands (ev):

   -90.8700   0.6441  22.4986  22.4986  25.9304  28.6026

          k =-0.1250 0.6250-0.1250 (   226 PWs)   bands (ev):

   -90.8630   2.5416  17.8180  21.4578  22.4587  29.5126

          k = 0.7501-0.2500 0.7501 (   231 PWs)   bands (ev):

   -90.8578   5.3351  12.3328  19.9116  21.6136  30.3346

          k = 0.6250-0.1250 0.6250 (   230 PWs)   bands (ev):

   -90.8573   6.3804  10.5526  18.6622  22.9443  31.2566

          k = 0.5000 0.0000 0.5000 (   222 PWs)   bands (ev):

   -90.8616   3.4044  14.2384  19.2888  25.2309  32.9619

          k = 0.0000 0.7501 0.0000 (   226 PWs)   bands (ev):

   -90.8586   4.0465  18.1965  20.0201  20.0201  25.8024

          k = 0.8751-0.1250 0.8751 (   228 PWs)   bands (ev):

   -90.8551   6.3640  14.3536  17.2747  19.7977  28.0894

          k = 0.7501 0.0000 0.7501 (   224 PWs)   bands (ev):

   -90.8546   8.8543  10.1242  16.2575  20.8109  30.1674

          k = 0.0000-1.0001 0.0000 (   222 PWs)   bands (ev):

   -90.8540   7.0375  13.5168  19.1728  19.1728  24.8679

          k =-0.2500 0.5000 0.0000 (   223 PWs)   bands (ev):

   -90.8674   1.3308  18.5471  21.3188  26.0736  33.6015

          k = 0.6250-0.3750 0.8751 (   230 PWs)   bands (ev):

   -90.8606   3.8810  13.5314  20.2778  23.4800  32.6602

          k = 0.5000-0.2500 0.7501 (   232 PWs)   bands (ev):

   -90.8578   6.2283  10.1298  20.3517  22.2618  32.2990

          k = 0.7501-0.2500 1.0001 (   226 PWs)   bands (ev):

   -90.8579   4.7606  15.9189  17.4006  20.7436  31.6599

          k = 0.6250-0.1250 0.8751 (   227 PWs)   bands (ev):

   -90.8550   7.7842  11.4046  16.0325  20.3884  32.6715

          k = 0.5000-0.0000 0.7501 (   227 PWs)   bands (ev):

   -90.8561   6.8556  11.5563  16.6705  21.3842  33.1114

          k =-0.2500-1.0001-0.0000 (   226 PWs)   bands (ev):

   -90.8539   7.9466  13.1481  15.0311  19.5144  30.7888

          k =-0.5000-1.0001 0.0000 (   224 PWs)   bands (ev):

   -90.8538  10.6541  10.6541  12.8251  19.8014  35.0225

     the Fermi energy is    10.0507 ev

!    total energy              =     -29.53243165 Ry
     Harris-Foulkes estimate   =     -29.53243165 Ry
     estimated scf accuracy    <          9.3E-13 Ry

     total all-electron energy =       -29.532432 Ry

     The total energy is the sum of the following terms:

     one-electron contribution =     -17.61185294 Ry
     hartree contribution      =       2.35950972 Ry
     xc contribution           =      -4.02749580 Ry
     ewald contribution        =     -12.26201326 Ry
     one-center paw contrib.   =       2.00948092 Ry
     smearing contrib. (-TS)   =      -0.00006029 Ry

     convergence has been achieved in   5 iterations

     Forces acting on atoms (cartesian axes, Ry/au):

     atom    1 type  1   force =     0.00000000    0.00000000    0.00000000

     Total force =     0.000000     Total SCF correction =     0.000000


     Computing stress (Cartesian axis) and pressure

          total   stress  (Ry/bohr**3)                   (kbar)     P=    1.99
   0.00001354   0.00000000  -0.00000000          1.99      0.00     -0.00
   0.00000000   0.00001354   0.00000000          0.00      1.99      0.00
  -0.00000000   0.00000000   0.00001354         -0.00      0.00      1.99


     number of scf cycles    =   8
     number of bfgs steps    =   2

     enthalpy old            =     -29.5324319567 Ry
     enthalpy new            =     -29.5324316513 Ry

     CASE: enthalpy_new > enthalpy_old

     new trust radius        =       0.0000959308 bohr

     trust_radius < trust_radius_min

     resetting bfgs history

     new conv_thr            =            1.0E-10 Ry

     new unit-cell volume =     53.46070 a.u.^3 (     7.92206 Ang^3 )
     density =      1.88904 g/cm^3

CELL_PARAMETERS (alat=  5.98300000)
  -0.499745878   0.000000000   0.499745878
  -0.000000000   0.499745878   0.499745878
  -0.499745878   0.499745878   0.000000000

ATOMIC_POSITIONS (alat)
Be       0.000000000   0.000000000   0.000000000



     Writing output data file relax.save/
     NEW-OLD atomic charge density approx. for the potential
     extrapolated charge    3.99485, renormalised to    4.00000

     total cpu time spent up to now is        4.2 secs

     Self-consistent Calculation

     iteration #  1     ecut=    40.00 Ry     beta= 0.70
     Davidson diagonalization with overlap
     ethr =  1.00E-06,  avg # of iterations =  2.0

     Threshold (ethr) on eigenvalues was too large:
     Diagonalizing with lowered threshold

     Davidson diagonalization with overlap
     ethr =  4.23E-10,  avg # of iterations =  1.1

     total cpu time spent up to now is        4.3 secs

     total energy              =     -29.53243016 Ry
     Harris-Foulkes estimate   =     -29.54015565 Ry
     estimated scf accuracy    <       0.00000002 Ry

     iteration #  2     ecut=    40.00 Ry     beta= 0.70
     Davidson diagonalization with overlap
     ethr =  4.23E-10,  avg # of iterations =  3.0

     total cpu time spent up to now is        4.4 secs

     total energy              =     -29.53243047 Ry
     Harris-Foulkes estimate   =     -29.53243085 Ry
     estimated scf accuracy    <          6.3E-09 Ry

     iteration #  3     ecut=    40.00 Ry     beta= 0.70
     Davidson diagonalization with overlap
     ethr =  1.58E-10,  avg # of iterations =  2.0

     total cpu time spent up to now is        4.4 secs

     total energy              =     -29.53243039 Ry
     Harris-Foulkes estimate   =     -29.53243048 Ry
     estimated scf accuracy    <          1.5E-09 Ry

     iteration #  4     ecut=    40.00 Ry     beta= 0.70
     Davidson diagonalization with overlap
     ethr =  3.66E-11,  avg # of iterations =  2.0

     total cpu time spent up to now is        4.5 secs

     total energy              =     -29.53243037 Ry
     Harris-Foulkes estimate   =     -29.53243040 Ry
     estimated scf accuracy    <          4.2E-10 Ry

     iteration #  5     ecut=    40.00 Ry     beta= 0.70
     Davidson diagonalization with overlap
     ethr =  1.05E-11,  avg # of iterations =  2.0

     total cpu time spent up to now is        4.5 secs

     End of self-consistent calculation

          k = 0.0000 0.0000 0.0000 (   259 PWs)   bands (ev):

   -90.8691  -2.1174  29.0434  29.0434  29.0434  38.8145

          k =-0.1251 0.1251-0.1251 (   232 PWs)   bands (ev):

   -90.8655  -1.6025  25.4158  28.3008  28.3008  36.9343

          k =-0.2501 0.2501-0.2501 (   232 PWs)   bands (ev):

   -90.8571  -0.0633  18.8502  27.1081  27.1081  38.1223

          k =-0.3752 0.3752-0.3752 (   232 PWs)   bands (ev):

   -90.8485   2.3957  12.9413  26.3549  26.3549  36.9380

          k = 0.5003-0.5003 0.5003 (   228 PWs)   bands (ev):

   -90.8449   4.4363   9.7108  26.1270  26.1270  35.9500

          k = 0.0000 0.2501 0.0000 (   230 PWs)   bands (ev):

   -90.8644  -1.4289  26.2837  26.2837  28.9483  33.2813

          k =-0.1251 0.3752-0.1251 (   228 PWs)   bands (ev):

   -90.8576  -0.2223  21.2224  24.6247  28.1698  33.1566

          k =-0.2501 0.5003-0.2501 (   228 PWs)   bands (ev):

   -90.8490   1.9823  15.0305  23.9339  26.2114  31.9689

          k = 0.6253-0.3752 0.6253 (   233 PWs)   bands (ev):

   -90.8438   4.6659  10.3833  24.2534  24.3175  31.8450

          k = 0.5003-0.2501 0.5003 (   230 PWs)   bands (ev):

   -90.8449   3.8471  11.5587  23.1108  25.6552  33.0874

          k = 0.3752-0.1251 0.3752 (   223 PWs)   bands (ev):

   -90.8518   1.1450  16.8595  23.0452  27.5349  35.6150

          k = 0.2501 0.0000 0.2501 (   233 PWs)   bands (ev):

   -90.8604  -0.7414  22.7283  24.4088  28.9385  36.8736

          k = 0.0000 0.5003 0.0000 (   234 PWs)   bands (ev):

   -90.8533   0.6517  22.5247  22.5247  25.9611  28.6308

          k =-0.1251 0.6253-0.1251 (   226 PWs)   bands (ev):

   -90.8463   2.5502  17.8393  21.4829  22.4854  29.5438

          k = 0.7504-0.2501 0.7504 (   231 PWs)   bands (ev):

   -90.8411   5.3452  12.3495  19.9364  21.6389  30.3683

          k = 0.6253-0.1251 0.6253 (   230 PWs)   bands (ev):

   -90.8405   6.3909  10.5680  18.6867  22.9710  31.2906

          k = 0.5003 0.0000 0.5003 (   222 PWs)   bands (ev):

   -90.8449   3.4134  14.2559  19.3143  25.2601  32.9962

          k = 0.0000 0.7504 0.0000 (   226 PWs)   bands (ev):

   -90.8419   4.0560  18.2186  20.0438  20.0438  25.8282

          k = 0.8754-0.1251 0.8754 (   228 PWs)   bands (ev):

   -90.8383   6.3748  14.3712  17.2973  19.8212  28.1191

          k = 0.7504 0.0000 0.7504 (   224 PWs)   bands (ev):

   -90.8378   8.8669  10.1376  16.2805  20.8354  30.2018

          k = 0.0000-1.0005 0.0000 (   222 PWs)   bands (ev):

   -90.8372   7.0485  13.5355  19.1957  19.1957  24.8929

          k =-0.2501 0.5003 0.0000 (   223 PWs)   bands (ev):

   -90.8507   1.3388  18.5687  21.3447  26.1046  33.6359

          k = 0.6253-0.3752 0.8754 (   230 PWs)   bands (ev):

   -90.8438   3.8903  13.5492  20.3020  23.5090  32.6940

          k = 0.5003-0.2501 0.7504 (   232 PWs)   bands (ev):

   -90.8410   6.2382  10.1460  20.3748  22.2908  32.3324

          k = 0.7504-0.2501 1.0005 (   226 PWs)   bands (ev):

   -90.8411   4.7705  15.9380  17.4206  20.7714  31.6919

          k = 0.6253-0.1251 0.8754 (   227 PWs)   bands (ev):

   -90.8382   7.7960  11.4198  16.0518  20.4167  32.7066

          k = 0.5003-0.0000 0.7504 (   227 PWs)   bands (ev):

   -90.8393   6.8668  11.5713  16.6916  21.4126  33.1463

          k =-0.2501-1.0005-0.0000 (   226 PWs)   bands (ev):

   -90.8371   7.9584  13.1650  15.0494  19.5411  30.8200

          k =-0.5003-1.0005 0.0000 (   224 PWs)   bands (ev):

   -90.8370  10.6683  10.6683  12.8405  19.8312  35.0597

     the Fermi energy is    10.0658 ev

!    total energy              =     -29.53243037 Ry
     Harris-Foulkes estimate   =     -29.53243037 Ry
     estimated scf accuracy    <          9.4E-13 Ry

     total all-electron energy =       -29.532430 Ry

     The total energy is the sum of the following terms:

     one-electron contribution =     -17.60480788 Ry
     hartree contribution      =       2.35817257 Ry
     xc contribution           =      -4.02806144 Ry
     ewald contribution        =     -12.26727329 Ry
     one-center paw contrib.   =       2.00959987 Ry
     smearing contrib. (-TS)   =      -0.00006020 Ry

     convergence has been achieved in   5 iterations

     Forces acting on atoms (cartesian axes, Ry/au):

     atom    1 type  1   force =     0.00000000    0.00000000    0.00000000

     Total force =     0.000000     Total SCF correction =     0.000000


     Computing stress (Cartesian axis) and pressure

          total   stress  (Ry/bohr**3)                   (kbar)     P=    3.49
   0.00002372   0.00000000   0.00000000          3.49      0.00      0.00
   0.00000000   0.00002372  -0.00000000          0.00      3.49     -0.00
   0.00000000  -0.00000000   0.00002372          0.00     -0.00      3.49


     number of scf cycles    =   9
     number of bfgs steps    =   2

     enthalpy old            =     -29.5324319567 Ry
     enthalpy new            =     -29.5324303696 Ry

     CASE: enthalpy_new > enthalpy_old

     new trust radius        =       0.0002717295 bohr
     new conv_thr            =            1.0E-10 Ry

     new unit-cell volume =     53.52953 a.u.^3 (     7.93226 Ang^3 )
     density =      1.88661 g/cm^3

CELL_PARAMETERS (alat=  5.98300000)
  -0.499960254   0.000000000   0.499960254
  -0.000000000   0.499960254   0.499960254
  -0.499960254   0.499960254   0.000000000

ATOMIC_POSITIONS (alat)
Be       0.000000000   0.000000000   0.000000000



     Writing output data file relax.save/
     NEW-OLD atomic charge density approx. for the potential
     extrapolated charge    4.00514, renormalised to    4.00000

     total cpu time spent up to now is        4.7 secs

     Self-consistent Calculation

     iteration #  1     ecut=    40.00 Ry     beta= 0.70
     Davidson diagonalization with overlap
     ethr =  1.00E-06,  avg # of iterations =  2.0

     Threshold (ethr) on eigenvalues was too large:
     Diagonalizing with lowered threshold

     Davidson diagonalization with overlap
     ethr =  4.26E-10,  avg # of iterations =  1.1

     total cpu time spent up to now is        4.7 secs

     total energy              =     -29.53243143 Ry
     Harris-Foulkes estimate   =     -29.52474492 Ry
     estimated scf accuracy    <       0.00000002 Ry

     iteration #  2     ecut=    40.00 Ry     beta= 0.70
     Davidson diagonalization with overlap
     ethr =  4.27E-10,  avg # of iterations =  3.0

     total cpu time spent up to now is        4.8 secs

     total energy              =     -29.53243174 Ry
     Harris-Foulkes estimate   =     -29.53243212 Ry
     estimated scf accuracy    <          6.3E-09 Ry

     iteration #  3     ecut=    40.00 Ry     beta= 0.70
     Davidson diagonalization with overlap
     ethr =  1.58E-10,  avg # of iterations =  2.0

     total cpu time spent up to now is        4.8 secs

     total energy              =     -29.53243167 Ry
     Harris-Foulkes estimate   =     -29.53243176 Ry
     estimated scf accuracy    <          1.4E-09 Ry

     iteration #  4     ecut=    40.00 Ry     beta= 0.70
     Davidson diagonalization with overlap
     ethr =  3.62E-11,  avg # of iterations =  2.0

     total cpu time spent up to now is        4.9 secs

     total energy              =     -29.53243165 Ry
     Harris-Foulkes estimate   =     -29.53243168 Ry
     estimated scf accuracy    <          4.0E-10 Ry

     iteration #  5     ecut=    40.00 Ry     beta= 0.70
     Davidson diagonalization with overlap
     ethr =  1.00E-11,  avg # of iterations =  2.0

     total cpu time spent up to now is        5.0 secs

     End of self-consistent calculation

          k = 0.0000 0.0000 0.0000 (   259 PWs)   bands (ev):

   -90.8857  -2.1236  29.0098  29.0098  29.0098  38.7770

          k =-0.1250 0.1250-0.1250 (   232 PWs)   bands (ev):

   -90.8821  -1.6089  25.3865  28.2681  28.2681  36.8975

          k =-0.2500 0.2500-0.2500 (   232 PWs)   bands (ev):

   -90.8738  -0.0705  18.8271  27.0767  27.0767  38.0834

          k =-0.3750 0.3750-0.3750 (   232 PWs)   bands (ev):

   -90.8652   2.3875  12.9227  26.3242  26.3242  36.9023

          k = 0.5000-0.5000 0.5000 (   228 PWs)   bands (ev):

   -90.8616   4.4280   9.6935  26.0965  26.0965  35.9153

          k = 0.0000 0.2500 0.0000 (   230 PWs)   bands (ev):

   -90.8810  -1.4355  26.2536  26.2536  28.9138  33.2491

          k =-0.1250 0.3750-0.1250 (   228 PWs)   bands (ev):

   -90.8743  -0.2295  21.1975  24.5964  28.1359  33.1239

          k =-0.2500 0.5000-0.2500 (   228 PWs)   bands (ev):

   -90.8657   1.9742  15.0108  23.9063  26.1801  31.9372

          k = 0.6250-0.3750 0.6250 (   233 PWs)   bands (ev):

   -90.8605   4.6570  10.3663  24.2246  24.2893  31.8130

          k = 0.5000-0.2500 0.5000 (   230 PWs)   bands (ev):

   -90.8617   3.8383  11.5414  23.0831  25.6254  33.0543

          k = 0.3750-0.1250 0.3750 (   223 PWs)   bands (ev):

   -90.8685   1.1373  16.8386  23.0176  27.5029  35.5798

          k = 0.2500 0.0000 0.2500 (   233 PWs)   bands (ev):

   -90.8771  -0.7483  22.7026  24.3797  28.9047  36.8362

          k = 0.0000 0.5000 0.0000 (   234 PWs)   bands (ev):

   -90.8700   0.6441  22.4986  22.4986  25.9304  28.6026

          k =-0.1250 0.6250-0.1250 (   226 PWs)   bands (ev):

   -90.8630   2.5416  17.8180  21.4578  22.4587  29.5126

          k = 0.7501-0.2500 0.7501 (   231 PWs)   bands (ev):

   -90.8578   5.3351  12.3328  19.9116  21.6136  30.3346

          k = 0.6250-0.1250 0.6250 (   230 PWs)   bands (ev):

   -90.8573   6.3804  10.5526  18.6622  22.9443  31.2566

          k = 0.5000 0.0000 0.5000 (   222 PWs)   bands (ev):

   -90.8616   3.4044  14.2384  19.2888  25.2309  32.9619

          k = 0.0000 0.7501 0.0000 (   226 PWs)   bands (ev):

   -90.8586   4.0465  18.1965  20.0201  20.0201  25.8024

          k = 0.8751-0.1250 0.8751 (   228 PWs)   bands (ev):

   -90.8551   6.3640  14.3536  17.2747  19.7977  28.0894

          k = 0.7501 0.0000 0.7501 (   224 PWs)   bands (ev):

   -90.8546   8.8543  10.1242  16.2575  20.8109  30.1674

          k = 0.0000-1.0001 0.0000 (   222 PWs)   bands (ev):

   -90.8540   7.0375  13.5168  19.1728  19.1728  24.8679

          k =-0.2500 0.5000 0.0000 (   223 PWs)   bands (ev):

   -90.8674   1.3308  18.5471  21.3188  26.0736  33.6015

          k = 0.6250-0.3750 0.8751 (   230 PWs)   bands (ev):

   -90.8606   3.8810  13.5314  20.2778  23.4800  32.6602

          k = 0.5000-0.2500 0.7501 (   232 PWs)   bands (ev):

   -90.8578   6.2283  10.1298  20.3517  22.2618  32.2990

          k = 0.7501-0.2500 1.0001 (   226 PWs)   bands (ev):

   -90.8579   4.7606  15.9189  17.4006  20.7436  31.6599

          k = 0.6250-0.1250 0.8751 (   227 PWs)   bands (ev):

   -90.8550   7.7842  11.4046  16.0325  20.3884  32.6715

          k = 0.5000-0.0000 0.7501 (   227 PWs)   bands (ev):

   -90.8561   6.8556  11.5563  16.6705  21.3842  33.1114

          k =-0.2500-1.0001 0.0000 (   226 PWs)   bands (ev):

   -90.8539   7.9466  13.1481  15.0311  19.5144  30.7888

          k =-0.5000-1.0001 0.0000 (   224 PWs)   bands (ev):

   -90.8538  10.6541  10.6541  12.8251  19.8014  35.0225

     the Fermi energy is    10.0507 ev

!    total energy              =     -29.53243165 Ry
     Harris-Foulkes estimate   =     -29.53243165 Ry
     estimated scf accuracy    <          9.3E-13 Ry

     total all-electron energy =       -29.532432 Ry

     The total energy is the sum of the following terms:

     one-electron contribution =     -17.61185294 Ry
     hartree contribution      =       2.35950972 Ry
     xc contribution           =      -4.02749580 Ry
     ewald contribution        =     -12.26201326 Ry
     one-center paw contrib.   =       2.00948092 Ry
     smearing contrib. (-TS)   =      -0.00006029 Ry

     convergence has been achieved in   5 iterations

     Forces acting on atoms (cartesian axes, Ry/au):

     atom    1 type  1   force =     0.00000000    0.00000000    0.00000000

     Total force =     0.000000     Total SCF correction =     0.000000


     Computing stress (Cartesian axis) and pressure

          total   stress  (Ry/bohr**3)                   (kbar)     P=    1.99
   0.00001354   0.00000000  -0.00000000          1.99      0.00     -0.00
  -0.00000000   0.00001354   0.00000000         -0.00      1.99      0.00
  -0.00000000   0.00000000   0.00001354         -0.00      0.00      1.99


     number of scf cycles    =  10
     number of bfgs steps    =   2

     enthalpy old            =     -29.5324319567 Ry
     enthalpy new            =     -29.5324316512 Ry

     CASE: enthalpy_new > enthalpy_old

     new trust radius        =       0.0000959260 bohr

     trust_radius < trust_radius_min

     resetting bfgs history

     new conv_thr            =            1.0E-10 Ry

     new unit-cell volume =     53.46070 a.u.^3 (     7.92206 Ang^3 )
     density =      1.88904 g/cm^3

CELL_PARAMETERS (alat=  5.98300000)
  -0.499745878   0.000000000   0.499745878
  -0.000000000   0.499745878   0.499745878
  -0.499745878   0.499745878   0.000000000

ATOMIC_POSITIONS (alat)
Be       0.000000000   0.000000000   0.000000000



     Writing output data file relax.save/
     NEW-OLD atomic charge density approx. for the potential
     extrapolated charge    3.99485, renormalised to    4.00000

     total cpu time spent up to now is        5.1 secs

     Self-consistent Calculation

[...]

     one-electron contribution =     -17.61185289 Ry
     hartree contribution      =       2.35950971 Ry
     xc contribution           =      -4.02749580 Ry
     ewald contribution        =     -12.26201330 Ry
     one-center paw contrib.   =       2.00948092 Ry
     smearing contrib. (-TS)   =      -0.00006029 Ry

     convergence has been achieved in   5 iterations

     Forces acting on atoms (cartesian axes, Ry/au):

     atom    1 type  1   force =     0.00000000    0.00000000    0.00000000

     Total force =     0.000000     Total SCF correction =     0.000000


     Computing stress (Cartesian axis) and pressure

          total   stress  (Ry/bohr**3)                   (kbar)     P=    1.99
   0.00001354  -0.00000000   0.00000000          1.99     -0.00      0.00
  -0.00000000   0.00001354  -0.00000000         -0.00      1.99     -0.00
   0.00000000  -0.00000000   0.00001354          0.00     -0.00      1.99


     number of scf cycles    =  48
     number of bfgs steps    =   2

     enthalpy old            =     -29.5324319567 Ry
     enthalpy new            =     -29.5324316512 Ry

     CASE: enthalpy_new > enthalpy_old

     new trust radius        =       0.0000959299 bohr

     trust_radius < trust_radius_min

     resetting bfgs history

     new conv_thr            =            1.0E-10 Ry

     new unit-cell volume =     53.46070 a.u.^3 (     7.92206 Ang^3 )
     density =      1.88904 g/cm^3

CELL_PARAMETERS (alat=  5.98300000)
  -0.499745878   0.000000000   0.499745878
  -0.000000000   0.499745878   0.499745878
  -0.499745878   0.499745878   0.000000000

ATOMIC_POSITIONS (alat)
Be       0.000000000   0.000000000   0.000000000



     Writing output data file relax.save/
     NEW-OLD atomic charge density approx. for the potential
     extrapolated charge    3.99485, renormalised to    4.00000

     total cpu time spent up to now is       25.8 secs

     Self-consistent Calculation

     iteration #  1     ecut=    40.00 Ry     beta= 0.70
     Davidson diagonalization with overlap
     ethr =  1.00E-06,  avg # of iterations =  2.0

     Threshold (ethr) on eigenvalues was too large:
     Diagonalizing with lowered threshold

     Davidson diagonalization with overlap
     ethr =  4.23E-10,  avg # of iterations =  1.1

     total cpu time spent up to now is       25.9 secs

     total energy              =     -29.53243016 Ry
     Harris-Foulkes estimate   =     -29.54015559 Ry
     estimated scf accuracy    <       0.00000002 Ry

     iteration #  2     ecut=    40.00 Ry     beta= 0.70
     Davidson diagonalization with overlap
     ethr =  4.23E-10,  avg # of iterations =  3.0

     total cpu time spent up to now is       26.0 secs

     total energy              =     -29.53243047 Ry
     Harris-Foulkes estimate   =     -29.53243085 Ry
     estimated scf accuracy    <          6.3E-09 Ry

     iteration #  3     ecut=    40.00 Ry     beta= 0.70
     Davidson diagonalization with overlap
     ethr =  1.58E-10,  avg # of iterations =  2.0

     total cpu time spent up to now is       26.1 secs

     total energy              =     -29.53243039 Ry
     Harris-Foulkes estimate   =     -29.53243048 Ry
     estimated scf accuracy    <          1.5E-09 Ry

     iteration #  4     ecut=    40.00 Ry     beta= 0.70
     Davidson diagonalization with overlap
     ethr =  3.66E-11,  avg # of iterations =  2.0

     total cpu time spent up to now is       26.2 secs

     total energy              =     -29.53243037 Ry
     Harris-Foulkes estimate   =     -29.53243040 Ry
     estimated scf accuracy    <          4.2E-10 Ry

     iteration #  5     ecut=    40.00 Ry     beta= 0.70
     Davidson diagonalization with overlap
     ethr =  1.05E-11,  avg # of iterations =  2.0

     total cpu time spent up to now is       26.2 secs

     End of self-consistent calculation

          k = 0.0000 0.0000 0.0000 (   259 PWs)   bands (ev):

   -90.8691  -2.1174  29.0434  29.0434  29.0434  38.8145

          k =-0.1251 0.1251-0.1251 (   232 PWs)   bands (ev):

   -90.8655  -1.6025  25.4158  28.3008  28.3008  36.9343

          k =-0.2501 0.2501-0.2501 (   232 PWs)   bands (ev):

   -90.8571  -0.0633  18.8502  27.1081  27.1081  38.1223

          k =-0.3752 0.3752-0.3752 (   232 PWs)   bands (ev):

   -90.8485   2.3957  12.9413  26.3549  26.3549  36.9380

          k = 0.5003-0.5003 0.5003 (   228 PWs)   bands (ev):

   -90.8449   4.4363   9.7108  26.1270  26.1270  35.9500

          k = 0.0000 0.2501 0.0000 (   230 PWs)   bands (ev):

   -90.8644  -1.4289  26.2837  26.2837  28.9483  33.2813

          k =-0.1251 0.3752-0.1251 (   228 PWs)   bands (ev):

   -90.8576  -0.2223  21.2224  24.6247  28.1698  33.1566

          k =-0.2501 0.5003-0.2501 (   228 PWs)   bands (ev):

   -90.8490   1.9823  15.0305  23.9339  26.2114  31.9689

          k = 0.6253-0.3752 0.6253 (   233 PWs)   bands (ev):

   -90.8438   4.6659  10.3833  24.2534  24.3175  31.8450

          k = 0.5003-0.2501 0.5003 (   230 PWs)   bands (ev):

   -90.8449   3.8471  11.5587  23.1108  25.6552  33.0874

          k = 0.3752-0.1251 0.3752 (   223 PWs)   bands (ev):

   -90.8518   1.1450  16.8595  23.0452  27.5349  35.6150

          k = 0.2501 0.0000 0.2501 (   233 PWs)   bands (ev):

   -90.8604  -0.7414  22.7283  24.4088  28.9385  36.8736

          k = 0.0000 0.5003 0.0000 (   234 PWs)   bands (ev):

   -90.8533   0.6517  22.5247  22.5247  25.9611  28.6308

          k =-0.1251 0.6253-0.1251 (   226 PWs)   bands (ev):

   -90.8463   2.5502  17.8393  21.4829  22.4854  29.5438

          k = 0.7504-0.2501 0.7504 (   231 PWs)   bands (ev):

   -90.8411   5.3452  12.3495  19.9364  21.6389  30.3683

          k = 0.6253-0.1251 0.6253 (   230 PWs)   bands (ev):

   -90.8405   6.3909  10.5680  18.6867  22.9710  31.2906

          k = 0.5003 0.0000 0.5003 (   222 PWs)   bands (ev):

   -90.8449   3.4134  14.2559  19.3143  25.2601  32.9962

          k = 0.0000 0.7504 0.0000 (   226 PWs)   bands (ev):

   -90.8419   4.0560  18.2186  20.0438  20.0438  25.8282

          k = 0.8754-0.1251 0.8754 (   228 PWs)   bands (ev):

   -90.8383   6.3748  14.3712  17.2973  19.8212  28.1191

          k = 0.7504 0.0000 0.7504 (   224 PWs)   bands (ev):

   -90.8378   8.8669  10.1376  16.2805  20.8354  30.2018

          k = 0.0000-1.0005 0.0000 (   222 PWs)   bands (ev):

   -90.8372   7.0485  13.5355  19.1957  19.1957  24.8929

          k =-0.2501 0.5003-0.0000 (   223 PWs)   bands (ev):

   -90.8507   1.3388  18.5687  21.3447  26.1046  33.6359

          k = 0.6253-0.3752 0.8754 (   230 PWs)   bands (ev):

   -90.8438   3.8903  13.5492  20.3020  23.5090  32.6940

          k = 0.5003-0.2501 0.7504 (   232 PWs)   bands (ev):

   -90.8410   6.2382  10.1460  20.3748  22.2908  32.3324

          k = 0.7504-0.2501 1.0005 (   226 PWs)   bands (ev):

   -90.8411   4.7705  15.9380  17.4206  20.7714  31.6919

          k = 0.6253-0.1251 0.8754 (   227 PWs)   bands (ev):

   -90.8382   7.7960  11.4198  16.0518  20.4167  32.7066

          k = 0.5003-0.0000 0.7504 (   227 PWs)   bands (ev):

   -90.8393   6.8668  11.5713  16.6916  21.4126  33.1463

          k =-0.2501-1.0005 0.0000 (   226 PWs)   bands (ev):

   -90.8371   7.9584  13.1650  15.0494  19.5411  30.8200

          k =-0.5003-1.0005 0.0000 (   224 PWs)   bands (ev):

   -90.8370  10.6683  10.6683  12.8405  19.8312  35.0597

     the Fermi energy is    10.0658 ev

!    total energy              =     -29.53243037 Ry
     Harris-Foulkes estimate   =     -29.53243037 Ry
     estimated scf accuracy    <          9.4E-13 Ry

     total all-electron energy =       -29.532430 Ry

     The total energy is the sum of the following terms:

     one-electron contribution =     -17.60480788 Ry
     hartree contribution      =       2.35817257 Ry
     xc contribution           =      -4.02806144 Ry
     ewald contribution        =     -12.26727329 Ry
     one-center paw contrib.   =       2.00959987 Ry
     smearing contrib. (-TS)   =      -0.00006020 Ry

     convergence has been achieved in   5 iterations

     Forces acting on atoms (cartesian axes, Ry/au):

     atom    1 type  1   force =     0.00000000    0.00000000    0.00000000

     Total force =     0.000000     Total SCF correction =     0.000000


     Computing stress (Cartesian axis) and pressure

          total   stress  (Ry/bohr**3)                   (kbar)     P=    3.49
   0.00002372   0.00000000  -0.00000000          3.49      0.00     -0.00
   0.00000000   0.00002372   0.00000000          0.00      3.49      0.00
  -0.00000000   0.00000000   0.00002372         -0.00      0.00      3.49


     number of scf cycles    =  49
     number of bfgs steps    =   2

     enthalpy old            =     -29.5324319567 Ry
     enthalpy new            =     -29.5324303696 Ry

     CASE: enthalpy_new > enthalpy_old

     new trust radius        =       0.0002717280 bohr
     new conv_thr            =            1.0E-10 Ry

     new unit-cell volume =     53.52953 a.u.^3 (     7.93226 Ang^3 )
     density =      1.88661 g/cm^3

CELL_PARAMETERS (alat=  5.98300000)
  -0.499960254   0.000000000   0.499960254
  -0.000000000   0.499960254   0.499960254
  -0.499960254   0.499960254   0.000000000

ATOMIC_POSITIONS (alat)
Be       0.000000000   0.000000000   0.000000000



     Writing output data file relax.save/
     NEW-OLD atomic charge density approx. for the potential
     extrapolated charge    4.00514, renormalised to    4.00000

     total cpu time spent up to now is       26.5 secs

     Self-consistent Calculation

     iteration #  1     ecut=    40.00 Ry     beta= 0.70
     Davidson diagonalization with overlap
     ethr =  1.00E-06,  avg # of iterations =  2.0

     Threshold (ethr) on eigenvalues was too large:
     Diagonalizing with lowered threshold

     Davidson diagonalization with overlap
     ethr =  4.26E-10,  avg # of iterations =  1.1

     total cpu time spent up to now is       26.6 secs

     total energy              =     -29.53243143 Ry
     Harris-Foulkes estimate   =     -29.52474490 Ry
     estimated scf accuracy    <       0.00000002 Ry

     iteration #  2     ecut=    40.00 Ry     beta= 0.70
     Davidson diagonalization with overlap
     ethr =  4.27E-10,  avg # of iterations =  3.0

     total cpu time spent up to now is       26.7 secs

     total energy              =     -29.53243174 Ry
     Harris-Foulkes estimate   =     -29.53243212 Ry
     estimated scf accuracy    <          6.3E-09 Ry

     iteration #  3     ecut=    40.00 Ry     beta= 0.70
     Davidson diagonalization with overlap
     ethr =  1.58E-10,  avg # of iterations =  2.0

     total cpu time spent up to now is       26.8 secs

     total energy              =     -29.53243167 Ry
     Harris-Foulkes estimate   =     -29.53243176 Ry
     estimated scf accuracy    <          1.4E-09 Ry

     iteration #  4     ecut=    40.00 Ry     beta= 0.70
     Davidson diagonalization with overlap
     ethr =  3.62E-11,  avg # of iterations =  2.0

     total cpu time spent up to now is       26.9 secs

     total energy              =     -29.53243165 Ry
     Harris-Foulkes estimate   =     -29.53243168 Ry
     estimated scf accuracy    <          4.0E-10 Ry

     iteration #  5     ecut=    40.00 Ry     beta= 0.70
     Davidson diagonalization with overlap
     ethr =  1.00E-11,  avg # of iterations =  2.0

     total cpu time spent up to now is       26.9 secs

     End of self-consistent calculation

          k = 0.0000 0.0000 0.0000 (   259 PWs)   bands (ev):

   -90.8857  -2.1236  29.0098  29.0098  29.0098  38.7770

          k =-0.1250 0.1250-0.1250 (   232 PWs)   bands (ev):

   -90.8821  -1.6089  25.3865  28.2681  28.2681  36.8975

          k =-0.2500 0.2500-0.2500 (   232 PWs)   bands (ev):

   -90.8738  -0.0705  18.8271  27.0767  27.0767  38.0834

          k =-0.3750 0.3750-0.3750 (   232 PWs)   bands (ev):

   -90.8652   2.3875  12.9227  26.3242  26.3242  36.9023

          k = 0.5000-0.5000 0.5000 (   228 PWs)   bands (ev):

   -90.8616   4.4280   9.6935  26.0965  26.0965  35.9153

          k = 0.0000 0.2500 0.0000 (   230 PWs)   bands (ev):

   -90.8810  -1.4355  26.2536  26.2536  28.9138  33.2491

          k =-0.1250 0.3750-0.1250 (   228 PWs)   bands (ev):

   -90.8743  -0.2295  21.1975  24.5964  28.1359  33.1239

          k =-0.2500 0.5000-0.2500 (   228 PWs)   bands (ev):

   -90.8657   1.9742  15.0108  23.9063  26.1801  31.9372

          k = 0.6250-0.3750 0.6250 (   233 PWs)   bands (ev):

   -90.8605   4.6570  10.3663  24.2246  24.2893  31.8130

          k = 0.5000-0.2500 0.5000 (   230 PWs)   bands (ev):

   -90.8617   3.8383  11.5414  23.0831  25.6254  33.0543

          k = 0.3750-0.1250 0.3750 (   223 PWs)   bands (ev):

   -90.8685   1.1373  16.8386  23.0176  27.5029  35.5798

          k = 0.2500 0.0000 0.2500 (   233 PWs)   bands (ev):

   -90.8771  -0.7483  22.7026  24.3797  28.9047  36.8362

          k = 0.0000 0.5000 0.0000 (   234 PWs)   bands (ev):

   -90.8700   0.6441  22.4986  22.4986  25.9304  28.6026

          k =-0.1250 0.6250-0.1250 (   226 PWs)   bands (ev):

   -90.8630   2.5416  17.8180  21.4578  22.4587  29.5126

          k = 0.7501-0.2500 0.7501 (   231 PWs)   bands (ev):

   -90.8578   5.3351  12.3328  19.9116  21.6136  30.3346

          k = 0.6250-0.1250 0.6250 (   230 PWs)   bands (ev):

   -90.8573   6.3804  10.5526  18.6622  22.9443  31.2566

          k = 0.5000 0.0000 0.5000 (   222 PWs)   bands (ev):

   -90.8616   3.4044  14.2384  19.2888  25.2309  32.9619

          k = 0.0000 0.7501 0.0000 (   226 PWs)   bands (ev):

   -90.8586   4.0465  18.1965  20.0201  20.0201  25.8024

          k = 0.8751-0.1250 0.8751 (   228 PWs)   bands (ev):

   -90.8551   6.3640  14.3536  17.2747  19.7977  28.0894

          k = 0.7501 0.0000 0.7501 (   224 PWs)   bands (ev):

   -90.8546   8.8543  10.1242  16.2575  20.8109  30.1674

          k = 0.0000-1.0001 0.0000 (   222 PWs)   bands (ev):

   -90.8540   7.0375  13.5168  19.1728  19.1728  24.8679

          k =-0.2500 0.5000-0.0000 (   223 PWs)   bands (ev):

   -90.8674   1.3308  18.5471  21.3188  26.0736  33.6015

          k = 0.6250-0.3750 0.8751 (   230 PWs)   bands (ev):

   -90.8606   3.8810  13.5314  20.2778  23.4800  32.6602

          k = 0.5000-0.2500 0.7501 (   232 PWs)   bands (ev):

   -90.8578   6.2283  10.1298  20.3517  22.2618  32.2990

          k = 0.7501-0.2500 1.0001 (   226 PWs)   bands (ev):

   -90.8579   4.7606  15.9189  17.4006  20.7436  31.6599

          k = 0.6250-0.1250 0.8751 (   227 PWs)   bands (ev):

   -90.8550   7.7842  11.4046  16.0325  20.3884  32.6715

          k = 0.5000-0.0000 0.7501 (   227 PWs)   bands (ev):

   -90.8561   6.8556  11.5563  16.6705  21.3842  33.1114

          k =-0.2500-1.0001 0.0000 (   226 PWs)   bands (ev):

   -90.8539   7.9466  13.1481  15.0311  19.5144  30.7888

          k =-0.5000-1.0001 0.0000 (   224 PWs)   bands (ev):

   -90.8538  10.6541  10.6541  12.8251  19.8014  35.0225

     the Fermi energy is    10.0507 ev

!    total energy              =     -29.53243165 Ry
     Harris-Foulkes estimate   =     -29.53243165 Ry
     estimated scf accuracy    <          9.3E-13 Ry

     total all-electron energy =       -29.532432 Ry

     The total energy is the sum of the following terms:

     one-electron contribution =     -17.61185296 Ry
     hartree contribution      =       2.35950972 Ry
     xc contribution           =      -4.02749580 Ry
     ewald contribution        =     -12.26201324 Ry
     one-center paw contrib.   =       2.00948092 Ry
     smearing contrib. (-TS)   =      -0.00006029 Ry

     convergence has been achieved in   5 iterations

     Forces acting on atoms (cartesian axes, Ry/au):

     atom    1 type  1   force =     0.00000000    0.00000000    0.00000000

     Total force =     0.000000     Total SCF correction =     0.000000


     Computing stress (Cartesian axis) and pressure

          total   stress  (Ry/bohr**3)                   (kbar)     P=    1.99
   0.00001354  -0.00000000  -0.00000000          1.99     -0.00     -0.00
  -0.00000000   0.00001354   0.00000000         -0.00      1.99      0.00
  -0.00000000   0.00000000   0.00001354         -0.00      0.00      1.99


     number of scf cycles    =  50
     number of bfgs steps    =   2

     enthalpy old            =     -29.5324319567 Ry
     enthalpy new            =     -29.5324316513 Ry

     CASE: enthalpy_new > enthalpy_old

     new trust radius        =       0.0000959297 bohr

     trust_radius < trust_radius_min

     resetting bfgs history

     new conv_thr            =            1.0E-10 Ry

     new unit-cell volume =     53.46070 a.u.^3 (     7.92206 Ang^3 )
     density =      1.88904 g/cm^3

CELL_PARAMETERS (alat=  5.98300000)
  -0.499745878   0.000000000   0.499745878
  -0.000000000   0.499745878   0.499745878
  -0.499745878   0.499745878   0.000000000

ATOMIC_POSITIONS (alat)
Be       0.000000000   0.000000000   0.000000000



     Writing output data file relax.save/
     NEW-OLD atomic charge density approx. for the potential
     extrapolated charge    3.99485, renormalised to    4.00000

     Writing output data file relax.save/
 
     init_run     :      0.21s CPU      0.22s WALL (       1 calls)
     electrons    :     14.72s CPU     16.30s WALL (      50 calls)
     update_pot   :      3.51s CPU      3.51s WALL (      50 calls)
     forces       :      1.32s CPU      1.35s WALL (      50 calls)
     stress       :      2.76s CPU      2.77s WALL (      50 calls)

     Called by init_run:
     wfcinit      :      0.01s CPU      0.01s WALL (       1 calls)
     potinit      :      0.03s CPU      0.03s WALL (       1 calls)
     hinit0       :      0.17s CPU      0.17s WALL (       1 calls)

     Called by electrons:
     c_bands      :      7.28s CPU      8.60s WALL (     290 calls)
     sum_band     :      1.33s CPU      1.52s WALL (     290 calls)
     v_of_rho     :      0.22s CPU      0.22s WALL (     291 calls)
     newd         :      0.08s CPU      0.08s WALL (     291 calls)
     PAW_pot      :      8.14s CPU      8.16s WALL (     341 calls)
     mix_rho      :      0.02s CPU      0.02s WALL (     290 calls)

     Called by c_bands:
     init_us_2    :      0.15s CPU      0.18s WALL (   21199 calls)
     cegterg      :      7.00s CPU      8.26s WALL (    8410 calls)

     Called by sum_band:
     sum_band:bec :      0.02s CPU      0.02s WALL (    9860 calls)
     addusdens    :      0.05s CPU      0.06s WALL (     290 calls)

     Called by *egterg:
     h_psi        :      4.92s CPU      5.81s WALL (   25460 calls)
     s_psi        :      0.07s CPU      0.09s WALL (   25460 calls)
     g_psi        :      0.03s CPU      0.03s WALL (   17021 calls)
     cdiaghg      :      1.09s CPU      1.29s WALL (   22560 calls)

     Called by h_psi:
     h_psi:pot    :      4.87s CPU      5.75s WALL (   25460 calls)
     h_psi:calbec :      0.23s CPU      0.27s WALL (   25460 calls)
     vloc_psi     :      4.47s CPU      5.28s WALL (   25460 calls)
     add_vuspsi   :      0.07s CPU      0.09s WALL (   25460 calls)

     General routines
     calbec       :      0.36s CPU      0.41s WALL (   42570 calls)
     fft          :      0.67s CPU      0.67s WALL (    5084 calls)
     ffts         :      0.02s CPU      0.02s WALL (     581 calls)
     fftw         :      4.91s CPU      5.76s WALL (  297502 calls)
     interpolate  :      0.02s CPU      0.02s WALL (     291 calls)
     davcio       :      0.00s CPU      0.00s WALL (      29 calls)
 
     Parallel routines
     fft_scatt_xy :      0.64s CPU      0.76s WALL (  303167 calls)
     fft_scatt_yz :      2.96s CPU      3.37s WALL (  303167 calls)
 
     PWSCF        :    25.26s CPU        27.23s WALL

 
   This run was terminated on:  15:52:49   9Aug2019            

=------------------------------------------------------------------------------=
   JOB DONE.
=------------------------------------------------------------------------------=
