{
    "directories":
        {
            "elem_template_dir": "/home/szymansk/Elem_Templates",
            "cmpd_template_dir": "/home/szymansk/Optimization_Sets/Bi/Input"
        },
    "compounds": [
        {
            "formula": "Bi",
            "lattice_type": "BCC",
            "phonon_frequency": [0.0,0.0,0.0,0.90,0.90,0.90]
        },
        {
            "formula": "AlBi",
            "lattice_type": "RS",
            "lattice_constant": 5.987
        },
        {
            "formula": "GaBi",
            "lattice_type": "ZB",
            "eos": [33.88067, 36.29721, 4.977]
        },
        {
            "formula": "ZrCoBi",
            "lattice_type": "HH",
            "lattice_constant": 6.1387
        },
        {
            "formula": "BiOBr",
            "lattice_type": "ortho",
            "band_gap": 1.900
        }
    ]
}
