===== VARIABLES =====
EXE_PATH = /scr/szymansk/2019-3/qe-bin/bin/pw.x
tpp = 4
Parallel keywords = -nimage 1
MPIRUN_EXE = orterun
PATH = /scr/szymansk/2019-3/mmshare-v4.7/lib/Linux-x86_64/openmpi/bin:/scr/szymansk/2019-3/internal/bin:/scr/szymansk/2019-3/mmshare-v4.7/bin/Linux-x86_64:/scr/szymansk/dakota/bin:/scr/szymansk/atompaw-4.1.0.5/src/:/usr/lib64/qt-3.3/bin:/usr/local/bin:/usr/local/sbin:/usr/bin:/usr/sbin:/bin:/sbin
LD_LIBRARY_PATH = /scr/szymansk/2019-3/mmshare-v4.7/lib/Linux-x86_64/openmpi/lib:/scr/szymansk/2019-3/internal/lib/ssl:/scr/szymansk/2019-3/internal/lib:/scr/szymansk/2019-3/mmshare-v4.7/lib/Linux-x86_64:/scr/szymansk/2019-3/internal/lib/python3.6/site-packages:/scr/szymansk/dakota/bin:/software/lib/Linux-x86_64/ifort_2017.1.132/mkl/lib/intel64
===== END VARIABLES =====
Invoking: exe_cmd () 
{ 
    "$MPIRUN_EXE" -np $tpp "$EXE_PATH" -in $input_file "${P_KEYWORDS[@]}"
}

     Program PWSCF v.6.3MaX starts on 20May2019 at 16:27:16 

     This program is part of the open-source Quantum ESPRESSO suite
     for quantum simulation of materials; please cite
         "P. Giannozzi et al., J. Phys.:Condens. Matter 21 395502 (2009);
         "P. Giannozzi et al., J. Phys.:Condens. Matter 29 465901 (2017);
          URL http://www.quantum-espresso.org", 
     in publications or presentations arising from this work. More details at
     http://www.quantum-espresso.org/quote

     Parallel version (MPI), running on     4 processors

     MPI processes distributed on     1 nodes
     R & G space division:  proc/nbgrp/npool/nimage =       4
     Reading input from SiO.RS.relax.in
Warning: card &CELL ignored
Warning: card   CELL_DYNAMICS='BFGS' ignored
Warning: card / ignored

     Current dimensions of program PWSCF are:
     Max number of different atomic species (ntypx) = 10
     Max number of k-points (npk) =  40000
     Max angular momentum in pseudopotentials (lmaxx) =  3
               file O.GGA-PBE-paw.UPF: wavefunction(s)  Xn Xn Xn Xn renormalized
               file Si.GGA-PBE-paw.UPF: wavefunction(s)  Xn Xn Xn renormalized

     Subspace diagonalization in iterative solution of the eigenvalue problem:
     a serial algorithm will be used

 
     Parallelization info
     --------------------
     sticks:   dense  smooth     PW     G-vecs:    dense   smooth      PW
     Min         128     105     34                 1955     1441     266
     Max         131     106     35                 1956     1445     267
     Sum         517     421    139                 7823     5769    1067
 


     bravais-lattice index     =            0
     lattice parameter (alat)  =       6.1690  a.u.
     unit-cell volume          =     166.0083 (a.u.)^3
     number of atoms/cell      =            2
     number of atomic types    =            2
     number of electrons       =        10.00
     number of Kohn-Sham states=            9
     kinetic-energy cutoff     =      40.0000  Ry
     charge density cutoff     =     200.0000  Ry
     convergence threshold     =      1.0E-08
     mixing beta               =       0.7000
     number of iterations used =            8  plain     mixing
     Exchange-correlation      = SLA PW PBX PBC ( 1  4  3  4 0 0)
     nstep                     =           50


     celldm(1)=   6.169003  celldm(2)=   0.000000  celldm(3)=   0.000000
     celldm(4)=   0.000000  celldm(5)=   0.000000  celldm(6)=   0.000000

     crystal axes: (cart. coord. in units of alat)
               a(1) = (   0.707107   0.707107   0.000000 )  
               a(2) = (   0.707107   0.000000  -0.707107 )  
               a(3) = (   0.000000   0.707107  -0.707107 )  

     reciprocal axes: (cart. coord. in units 2 pi/alat)
               b(1) = (  0.707107  0.707107  0.707107 )  
               b(2) = (  0.707107 -0.707107 -0.707107 )  
               b(3) = ( -0.707107  0.707107 -0.707107 )  


     PseudoPot. # 1 for O  read from file:
     ./O.GGA-PBE-paw.UPF
     MD5 check sum: 7818fb177f83e969bd9649bd55229eb7
     Pseudo is Projector augmented-wave + core cor, Zval =  6.0
     Generated using ATOMPAW code
     Shape of augmentation charge: SINC**2
     Using radial grid of 2342 points,  4 beta functions with: 
                l(1) =   0
                l(2) =   0
                l(3) =   1
                l(4) =   1
     Q(r) pseudized with 0 coefficients 


     PseudoPot. # 2 for Si read from file:
     ./Si.GGA-PBE-paw.UPF
     MD5 check sum: 971737f46324357c807e9d55c2cc26bc
     Pseudo is Projector augmented-wave + core cor, Zval =  4.0
     Generated using ATOMPAW code
     Shape of augmentation charge: SINC**2
     Using radial grid of 2342 points,  4 beta functions with: 
                l(1) =   0
                l(2) =   0
                l(3) =   1
                l(4) =   1
     Q(r) pseudized with 0 coefficients 


     atomic species   valence    mass     pseudopotential
        O              6.00    15.99900     O ( 1.00)
        Si             4.00    28.08550     Si( 1.00)

      6 Sym. Ops. (no inversion) found



   Cartesian axes

     site n.     atom                  positions (alat units)
         1           O   tau(   1) = (   0.0000000   0.0000000   0.0000000  )
         2           Si  tau(   2) = (   0.5000000   0.5000000   0.5000000  )

     number of k points=    65  Fermi-Dirac smearing, width (Ry)=  0.0020
                       cart. coord. in units 2pi/alat
        k(    1) = (   0.0000000   0.0000000   0.0000000), wk =   0.0039062
        k(    2) = (  -0.0883883   0.0883883  -0.0883883), wk =   0.0234375
        k(    3) = (  -0.1767767   0.1767767  -0.1767767), wk =   0.0234375
        k(    4) = (  -0.2651650   0.2651650  -0.2651650), wk =   0.0234375
        k(    5) = (   0.3535534  -0.3535534   0.3535534), wk =   0.0117188
        k(    6) = (   0.0000000   0.0000000  -0.1767767), wk =   0.0234375
        k(    7) = (  -0.0883883   0.0883883  -0.2651650), wk =   0.0468750
        k(    8) = (  -0.1767767   0.1767767  -0.3535534), wk =   0.0468750
        k(    9) = (   0.4419417  -0.4419417   0.2651650), wk =   0.0468750
        k(   10) = (   0.3535534  -0.3535534   0.1767767), wk =   0.0468750
        k(   11) = (   0.2651650  -0.2651650   0.0883883), wk =   0.0468750
        k(   12) = (   0.1767767  -0.1767767   0.0000000), wk =   0.0234375
        k(   13) = (   0.0000000   0.0000000  -0.3535534), wk =   0.0234375
        k(   14) = (  -0.0883883   0.0883883  -0.4419417), wk =   0.0468750
        k(   15) = (   0.5303301  -0.5303301   0.1767767), wk =   0.0468750
        k(   16) = (   0.4419417  -0.4419417   0.0883883), wk =   0.0468750
        k(   17) = (   0.3535534  -0.3535534   0.0000000), wk =   0.0234375
        k(   18) = (   0.0000000   0.0000000  -0.5303301), wk =   0.0234375
        k(   19) = (   0.6187184  -0.6187184   0.0883883), wk =   0.0468750
        k(   20) = (   0.5303301  -0.5303301   0.0000000), wk =   0.0234375
        k(   21) = (   0.0000000   0.0000000   0.7071068), wk =   0.0117188
        k(   22) = (   0.0000000   0.1767767  -0.3535534), wk =   0.0468750
        k(   23) = (   0.6187184  -0.4419417   0.2651650), wk =   0.0468750
        k(   24) = (   0.5303301  -0.3535534   0.1767767), wk =   0.0234375
        k(   25) = (   0.7071068  -0.5303301   0.1767767), wk =   0.0468750
        k(   26) = (   0.6187184  -0.4419417   0.0883883), wk =   0.0468750
        k(   27) = (   0.5303301  -0.3535534  -0.0000000), wk =   0.0468750
        k(   28) = (   0.0000000   0.1767767   0.7071068), wk =   0.0468750
        k(   29) = (   0.0000000   0.3535534   0.7071068), wk =   0.0234375
        k(   30) = (  -0.0883883  -0.0883883  -0.0883883), wk =   0.0078125
        k(   31) = (  -0.1767767  -0.1767767  -0.1767767), wk =   0.0078125
        k(   32) = (  -0.2651650  -0.2651650  -0.2651650), wk =   0.0078125
        k(   33) = (   0.3535534   0.3535534   0.3535534), wk =   0.0039062
        k(   34) = (   0.0883883   0.0883883  -0.2651650), wk =   0.0234375
        k(   35) = (  -0.0883883  -0.0883883  -0.2651650), wk =   0.0234375
        k(   36) = (   0.1767767   0.1767767  -0.3535534), wk =   0.0234375
        k(   37) = (  -0.1767767  -0.1767767  -0.3535534), wk =   0.0234375
        k(   38) = (  -0.4419417  -0.4419417   0.2651650), wk =   0.0234375
        k(   39) = (   0.4419417   0.4419417   0.2651650), wk =   0.0234375
        k(   40) = (  -0.3535534  -0.3535534   0.1767767), wk =   0.0234375
        k(   41) = (   0.3535534   0.3535534   0.1767767), wk =   0.0234375
        k(   42) = (  -0.2651650  -0.2651650   0.0883883), wk =   0.0234375
        k(   43) = (   0.2651650   0.2651650   0.0883883), wk =   0.0234375
        k(   44) = (  -0.1767767  -0.1767767   0.0000000), wk =   0.0234375
        k(   45) = (   0.0883883   0.0883883  -0.4419417), wk =   0.0234375
        k(   46) = (  -0.0883883  -0.0883883  -0.4419417), wk =   0.0234375
        k(   47) = (  -0.5303301  -0.5303301   0.1767767), wk =   0.0234375
        k(   48) = (   0.5303301   0.5303301   0.1767767), wk =   0.0234375
        k(   49) = (  -0.4419417  -0.4419417   0.0883883), wk =   0.0234375
        k(   50) = (   0.4419417   0.4419417   0.0883883), wk =   0.0234375
        k(   51) = (  -0.3535534  -0.3535534   0.0000000), wk =   0.0234375
        k(   52) = (  -0.6187184  -0.6187184   0.0883883), wk =   0.0234375
        k(   53) = (   0.6187184   0.6187184   0.0883883), wk =   0.0234375
        k(   54) = (  -0.5303301  -0.5303301   0.0000000), wk =   0.0234375
        k(   55) = (  -0.1767767  -0.0000000  -0.3535534), wk =   0.0468750
        k(   56) = (  -0.4419417  -0.6187184   0.2651650), wk =   0.0468750
        k(   57) = (   0.4419417   0.6187184   0.2651650), wk =   0.0468750
        k(   58) = (  -0.2651650  -0.4419417   0.6187184), wk =   0.0468750
        k(   59) = (  -0.3535534  -0.5303301   0.1767767), wk =   0.0468750
        k(   60) = (   0.3535534   0.5303301   0.1767767), wk =   0.0234375
        k(   61) = (   0.5303301   0.7071068   0.1767767), wk =   0.0468750
        k(   62) = (  -0.4419417  -0.6187184   0.0883883), wk =   0.0468750
        k(   63) = (   0.4419417   0.6187184   0.0883883), wk =   0.0468750
        k(   64) = (  -0.0883883  -0.4419417   0.6187184), wk =   0.0468750
        k(   65) = (  -0.3535534  -0.5303301  -0.0000000), wk =   0.0468750

     Dense  grid:     7823 G-vectors     FFT dimensions: (  27,  27,  27)

     Smooth grid:     5769 G-vectors     FFT dimensions: (  25,  25,  25)

     Estimated max dynamical RAM per process >       4.92 MB

     Estimated total dynamical RAM >      19.69 MB

     Initial potential from superposition of free atoms

     starting charge    9.99937, renormalised to   10.00000

     negative rho (up, down):  3.097E-06 0.000E+00
     Starting wfcs are   16 randomized atomic wfcs
     Checking if some PAW data can be deallocated... 

     total cpu time spent up to now is        1.5 secs

     Self-consistent Calculation

     iteration #  1     ecut=    40.00 Ry     beta= 0.70
     Davidson diagonalization with overlap
     ethr =  1.00E-02,  avg # of iterations =  4.5

     negative rho (up, down):  1.387E-04 0.000E+00

     total cpu time spent up to now is        1.9 secs

     total energy              =     -88.01306756 Ry
     Harris-Foulkes estimate   =     -86.84591230 Ry
     estimated scf accuracy    <       0.27196789 Ry

     iteration #  2     ecut=    40.00 Ry     beta= 0.70
     Davidson diagonalization with overlap
     ethr =  2.72E-03,  avg # of iterations =  2.0

     negative rho (up, down):  1.141E-04 0.000E+00

     total cpu time spent up to now is        2.2 secs

     total energy              =     -88.16335436 Ry
     Harris-Foulkes estimate   =     -88.27659714 Ry
     estimated scf accuracy    <       0.47063677 Ry

     iteration #  3     ecut=    40.00 Ry     beta= 0.70
     Davidson diagonalization with overlap
     ethr =  2.72E-03,  avg # of iterations =  2.0

     negative rho (up, down):  7.087E-05 0.000E+00

     total cpu time spent up to now is        2.6 secs

     total energy              =     -88.28802331 Ry
     Harris-Foulkes estimate   =     -88.28232212 Ry
     estimated scf accuracy    <       0.01762779 Ry

     iteration #  4     ecut=    40.00 Ry     beta= 0.70
     Davidson diagonalization with overlap
     ethr =  1.76E-04,  avg # of iterations =  2.1

     negative rho (up, down):  8.486E-05 0.000E+00

     total cpu time spent up to now is        2.9 secs

     total energy              =     -88.28672099 Ry
     Harris-Foulkes estimate   =     -88.29124593 Ry
     estimated scf accuracy    <       0.00167205 Ry

     iteration #  5     ecut=    40.00 Ry     beta= 0.70
     Davidson diagonalization with overlap
     ethr =  1.67E-05,  avg # of iterations =  2.0

     negative rho (up, down):  8.088E-05 0.000E+00

     total cpu time spent up to now is        3.2 secs

     total energy              =     -88.28768129 Ry
     Harris-Foulkes estimate   =     -88.28691397 Ry
     estimated scf accuracy    <       0.00009132 Ry

     iteration #  6     ecut=    40.00 Ry     beta= 0.70
     Davidson diagonalization with overlap
     ethr =  9.13E-07,  avg # of iterations =  2.4

     negative rho (up, down):  7.672E-05 0.000E+00

     total cpu time spent up to now is        3.6 secs

     total energy              =     -88.28772022 Ry
     Harris-Foulkes estimate   =     -88.28772700 Ry
     estimated scf accuracy    <       0.00001076 Ry

     iteration #  7     ecut=    40.00 Ry     beta= 0.70
     Davidson diagonalization with overlap
     ethr =  1.08E-07,  avg # of iterations =  1.3

     negative rho (up, down):  7.369E-05 0.000E+00

     total cpu time spent up to now is        3.9 secs

     total energy              =     -88.28772316 Ry
     Harris-Foulkes estimate   =     -88.28772238 Ry
     estimated scf accuracy    <       0.00000136 Ry

     iteration #  8     ecut=    40.00 Ry     beta= 0.70
     Davidson diagonalization with overlap
     ethr =  1.36E-08,  avg # of iterations =  1.8

     negative rho (up, down):  7.224E-05 0.000E+00

     total cpu time spent up to now is        4.2 secs

     total energy              =     -88.28772333 Ry
     Harris-Foulkes estimate   =     -88.28772334 Ry
     estimated scf accuracy    <       0.00000008 Ry

     iteration #  9     ecut=    40.00 Ry     beta= 0.70
     Davidson diagonalization with overlap
     ethr =  8.35E-10,  avg # of iterations =  2.0

     negative rho (up, down):  7.167E-05 0.000E+00

     total cpu time spent up to now is        4.5 secs

     End of self-consistent calculation

          k = 0.0000 0.0000 0.0000 (   725 PWs)   bands (ev):

   -13.0850   2.2735   2.2735   3.2913   4.4806  14.2548  14.2548  14.8779
    18.5313

          k =-0.0884 0.0884-0.0884 (   712 PWs)   bands (ev):

   -12.9672   0.9503   2.1959   4.0859   5.0193  13.1030  14.6907  14.8307
    18.8010

          k =-0.1768 0.1768-0.1768 (   703 PWs)   bands (ev):

   -12.6632  -0.6049   2.0200   4.1446   6.4735  11.6643  14.2116  15.8319
    18.0285

          k =-0.2652 0.2652-0.2652 (   715 PWs)   bands (ev):

   -12.3256  -1.7474   1.8495   4.0957   7.4897  10.6898  13.9567  16.6448
    17.7728

          k = 0.3536-0.3536 0.3536 (   718 PWs)   bands (ev):

   -12.1734  -2.1744   1.7806   4.0713   7.8111  10.3532  13.9994  16.4770
    17.5823

          k = 0.0000 0.0000-0.1768 (   701 PWs)   bands (ev):

   -12.9365   1.0084   2.0893   3.7239   5.3937  12.9788  14.4333  14.4818
    18.5594

          k =-0.0884 0.0884-0.2652 (   702 PWs)   bands (ev):

   -12.7022  -0.1190   1.8769   3.7442   6.5318  11.8269  13.5647  15.2590
    17.8917

          k =-0.1768 0.1768-0.3536 (   703 PWs)   bands (ev):

   -12.3750  -1.2667   1.5715   3.7705   7.7696  10.7135  13.1642  16.2810
    17.1121

          k = 0.4419-0.4419 0.2652 (   708 PWs)   bands (ev):

   -12.1480  -1.9353   1.3427   3.8551   8.5100  10.0134  13.3785  16.3941
    17.1728

          k = 0.3536-0.3536 0.1768 (   714 PWs)   bands (ev):

   -12.1869  -1.8865   1.3150   4.0174   8.3199  10.2811  13.2984  16.4144
    17.4607

          k = 0.2652-0.2652 0.0884 (   715 PWs)   bands (ev):

   -12.4618  -1.1688   1.5280   4.1995   7.3781  11.2286  13.2092  16.4732
    17.5419

          k = 0.1768-0.1768 0.0000 (   694 PWs)   bands (ev):

   -12.7807  -0.0697   1.9069   4.3223   6.0053  12.2614  14.0016  15.5734
    18.5507

          k = 0.0000 0.0000-0.3536 (   713 PWs)   bands (ev):

   -12.5604  -0.3111   1.6565   3.4286   6.9413  11.1565  13.0605  15.1004
    17.9729

          k =-0.0884 0.0884-0.4419 (   706 PWs)   bands (ev):

   -12.3063  -0.9283   1.2388   3.3636   7.6500  10.5179  12.5849  15.6268
    17.7345

          k = 0.5303-0.5303 0.1768 (   703 PWs)   bands (ev):

   -12.0821  -1.4042   0.6425   3.4588   8.5155  10.2093  12.6894  15.6018
    17.3173

          k = 0.4419-0.4419 0.0884 (   707 PWs)   bands (ev):

   -12.0357  -1.5839   0.3931   3.6854   9.2540   9.9411  12.7560  15.7394
    17.0221

          k = 0.3536-0.3536 0.0000 (   708 PWs)   bands (ev):

   -12.2003  -1.5037   0.7708   3.9786   8.7212  10.6042  12.3184  16.6110
    17.0969

          k = 0.0000 0.0000-0.5303 (   709 PWs)   bands (ev):

   -12.1552  -1.1110   1.2612   3.1182   7.0916  10.0484  12.8680  15.8552
    18.1103

          k = 0.6187-0.6187 0.0884 (   712 PWs)   bands (ev):

   -12.0096  -1.2607   0.7339   3.1316   7.3248  10.0905  13.0580  15.5942
    17.9969

          k = 0.5303-0.5303 0.0000 (   706 PWs)   bands (ev):

   -11.9602  -1.2096   0.0301   3.3435   8.2152  10.4942  13.2324  14.6319
    17.5288

          k = 0.0000 0.0000 0.7071 (   724 PWs)   bands (ev):

   -11.9776  -1.3764   1.1052   3.0073   6.6852   9.7609  13.2767  16.2229
    18.2546

          k = 0.0000 0.1768-0.3536 (   708 PWs)   bands (ev):

   -12.4342  -1.0270   1.3946   3.9681   7.4775  11.0993  12.8161  16.0227
    18.1058

          k = 0.6187-0.4419 0.2652 (   711 PWs)   bands (ev):

   -12.1657  -1.5040   0.7721   3.8357   8.6402  10.3706  12.6111  16.0318
    17.3884

          k = 0.5303-0.3536 0.1768 (   714 PWs)   bands (ev):

   -12.0478  -1.6846   0.5068   3.7790   9.3677   9.7317  13.0202  15.6140
    17.0944

          k = 0.7071-0.5303 0.1768 (   712 PWs)   bands (ev):

   -12.0914  -1.3983   0.9028   3.3383   7.8026  10.2742  12.7960  15.7420
    18.3274

          k = 0.6187-0.4419 0.0884 (   711 PWs)   bands (ev):

   -11.9739  -1.2721   0.1335   3.2608   8.4856  10.5588  13.1077  14.3955
    18.1093

          k = 0.5303-0.3536-0.0000 (   712 PWs)   bands (ev):

   -12.0056  -1.3997   0.2457   3.3849   8.9448  10.4160  12.6513  14.8932
    18.1698

          k = 0.0000 0.1768 0.7071 (   714 PWs)   bands (ev):

   -11.9708  -1.2107   0.7326   2.7161   7.5510  10.1851  13.0730  15.2146
    18.4474

          k = 0.0000 0.3536 0.7071 (   700 PWs)   bands (ev):

   -11.9639  -0.9866   0.3451   2.4510   8.6136  10.6116  12.6063  14.2112
    19.4284

          k =-0.0884-0.0884-0.0884 (   712 PWs)   bands (ev):

   -12.9918   2.2384   2.2384   2.4955   5.2097  13.5211  14.0690  14.0690
    19.3243

          k =-0.1768-0.1768-0.1768 (   703 PWs)   bands (ev):

   -12.7564   1.4057   2.1568   2.1568   6.0032  11.8658  13.5888  13.5888
    19.0155

          k =-0.2652-0.2652-0.2652 (   715 PWs)   bands (ev):

   -12.5042   0.5742   2.0718   2.0718   6.3502  10.9945  13.1054  13.1054
    18.6489

          k = 0.3536 0.3536 0.3536 (   718 PWs)   bands (ev):

   -12.3941   0.2618   2.0360   2.0360   6.4029  10.7755  12.9106  12.9106
    18.5760

          k = 0.0884 0.0884-0.2652 (   702 PWs)   bands (ev):

   -12.6828  -0.4158   1.8623   4.1561   6.4288  11.8026  13.7807  15.4557
    19.0060

          k =-0.0884-0.0884-0.2652 (   702 PWs)   bands (ev):

   -12.7484   0.8602   1.9521   2.7301   6.3345  11.9347  13.3418  14.0874
    18.8159

          k = 0.1768 0.1768-0.3536 (   703 PWs)   bands (ev):

   -12.3524  -1.5228   1.6988   3.9967   7.4856  10.8160  13.2906  16.2719
    19.0858

          k =-0.1768-0.1768-0.3536 (   703 PWs)   bands (ev):

   -12.4995   0.6150   1.8696   1.8862   6.9468  10.9075  12.7281  13.6446
    19.7552

          k =-0.4419-0.4419 0.2652 (   708 PWs)   bands (ev):

   -12.1470  -2.0206   1.6770   3.6493   8.1417  10.1577  13.3050  16.3487
    19.2230

          k = 0.4419 0.4419 0.2652 (   708 PWs)   bands (ev):

   -12.3382   0.4732   1.3528   1.8833   7.1922  10.4052  12.5644  13.3626
    19.7478

          k =-0.3536-0.3536 0.1768 (   714 PWs)   bands (ev):

   -12.2195  -1.7236   1.8085   3.3351   8.2295  10.1639  13.0867  16.2059
    18.3251

          k = 0.3536 0.3536 0.1768 (   714 PWs)   bands (ev):

   -12.3744   0.4955   1.3534   1.9882   7.1945  10.5069  12.5575  13.4258
    19.8137

          k =-0.2652-0.2652 0.0884 (   715 PWs)   bands (ev):

   -12.5122  -0.7070   2.0266   3.1683   7.3606  11.0867  13.0096  15.5003
    17.9980

          k = 0.2652 0.2652 0.0884 (   715 PWs)   bands (ev):

   -12.5823   0.5805   2.0065   2.1230   6.8452  11.2554  12.7667  13.8731
    19.9740

          k =-0.1768-0.1768 0.0000 (   694 PWs)   bands (ev):

   -12.8256   0.7626   2.2152   3.0279   6.0466  12.3894  13.5734  14.4724
    18.9561

          k = 0.0884 0.0884-0.4419 (   706 PWs)   bands (ev):

   -12.2832  -1.2615   1.4523   3.5715   7.4110  10.4569  12.8642  16.0293
    18.5581

          k =-0.0884-0.0884-0.4419 (   706 PWs)   bands (ev):

   -12.3597  -0.2574   1.5281   2.4451   7.4237  10.5350  12.4271  14.7603
    18.3977

          k =-0.5303-0.5303 0.1768 (   703 PWs)   bands (ev):

   -12.0802  -1.6812   1.4331   3.0438   7.9301  10.0997  12.9020  16.2376
    19.1465

          k = 0.5303 0.5303 0.1768 (   703 PWs)   bands (ev):

   -12.1967  -0.0978   1.4242   1.5403   7.8471  10.1073  12.2824  14.4864
    19.3289

          k =-0.4419-0.4419 0.0884 (   707 PWs)   bands (ev):

   -12.0930  -1.4137   1.6041   2.3716   8.5937   9.7907  12.5409  15.7306
    20.1535

          k = 0.4419 0.4419 0.0884 (   707 PWs)   bands (ev):

   -12.1756  -0.1276   1.1359   1.6849   8.3243   9.8223  12.2277  14.4409
    20.5886

          k =-0.3536-0.3536 0.0000 (   708 PWs)   bands (ev):

   -12.3099  -0.5387   1.8873   1.9825   8.2459  10.2353  12.2052  14.7778
    19.6427

          k =-0.6187-0.6187 0.0884 (   712 PWs)   bands (ev):

   -12.0087  -1.4346   1.2001   2.9028   7.1027   9.9543  13.1370  16.2204
    18.3010

          k = 0.6187 0.6187 0.0884 (   712 PWs)   bands (ev):

   -12.0443  -1.0279   1.2284   2.4200   7.1799  10.0157  12.8375  15.6902
    18.2248

          k =-0.5303-0.5303 0.0000 (   706 PWs)   bands (ev):

   -12.0191  -1.0742   1.3676   1.9624   7.7758  10.0815  12.6887  15.6032
    18.7830

          k =-0.1768-0.0000-0.3536 (   708 PWs)   bands (ev):

   -12.5061  -0.1454   1.7642   2.6883   7.3735  11.0438  12.5305  14.7318
    18.3848

          k =-0.4419-0.6187 0.2652 (   711 PWs)   bands (ev):

   -12.1648  -1.6357   1.1139   3.6580   8.3552  10.3577  12.6860  16.0315
    18.7069

          k = 0.4419 0.6187 0.2652 (   711 PWs)   bands (ev):

   -12.2995   0.0364   1.4923   1.7280   7.9944  10.2317  12.1718  14.2469
    19.7981

          k =-0.2652-0.4419 0.6187 (   711 PWs)   bands (ev):

   -12.2215  -1.1491   1.4216   2.8089   8.5789  10.0789  12.3615  15.4741
    18.2731

          k =-0.3536-0.5303 0.1768 (   714 PWs)   bands (ev):

   -12.0709  -1.7050   1.1406   3.1706   9.0082   9.6815  12.7717  15.7211
    18.6420

          k = 0.3536 0.5303 0.1768 (   714 PWs)   bands (ev):

   -12.2107   0.3713   0.8758   1.5902   8.2271   9.8429  12.2139  14.0613
    20.8623

          k = 0.5303 0.7071 0.1768 (   712 PWs)   bands (ev):

   -12.1496  -0.7758   1.0878   2.4778   7.8951  10.2777  12.2744  15.1629
    18.3616

          k =-0.4419-0.6187 0.0884 (   711 PWs)   bands (ev):

   -11.9976  -1.3638   0.9034   2.6151   8.2753  10.2069  12.7683  15.2053
    19.3433

          k = 0.4419 0.6187 0.0884 (   711 PWs)   bands (ev):

   -12.0580  -0.6070   1.0738   1.7132   8.3028  10.1239  12.2398  14.8387
    19.3107

          k =-0.0884-0.4419 0.6187 (   711 PWs)   bands (ev):

   -11.9986  -1.1514   0.4214   2.8280   8.5573  10.4132  12.5372  14.7484
    18.4695

          k =-0.3536-0.5303-0.0000 (   712 PWs)   bands (ev):

   -12.0888  -0.8009   1.1962   1.8930   8.8200   9.8413  12.1412  14.9426
    19.8043

     the Fermi energy is     9.5141 ev

!    total energy              =     -88.28772335 Ry
     Harris-Foulkes estimate   =     -88.28772335 Ry
     estimated scf accuracy    <          4.2E-09 Ry

     total all-electron energy =       -88.287723 Ry

     The total energy is the sum of the following terms:

     one-electron contribution =      -8.74411723 Ry
     hartree contribution      =      10.80627554 Ry
     xc contribution           =      -9.67531846 Ry
     ewald contribution        =     -31.69536564 Ry
     one-center paw contrib.   =     -48.97919449 Ry
     smearing contrib. (-TS)   =      -0.00000307 Ry

     convergence has been achieved in   9 iterations

     negative rho (up, down):  7.167E-05 0.000E+00

     Forces acting on atoms (cartesian axes, Ry/au):

     atom    1 type  1   force =    -0.01707672   -0.01707672   -0.01707672
     atom    2 type  2   force =     0.01707672    0.01707672    0.01707672

     Total force =     0.041829     Total SCF correction =     0.000089

     BFGS Geometry Optimization

     number of scf cycles    =   1
     number of bfgs steps    =   0

     energy   new            =     -88.2877233538 Ry

     new trust radius        =       0.0295777477 bohr
     new conv_thr            =       0.0000000100 Ry


ATOMIC_POSITIONS (alat)
O       -0.002768149  -0.002768149  -0.002768149
Si       0.502768149   0.502768149   0.502768149



     Writing output data file relax.save/
     NEW-OLD atomic charge density approx. for the potential

     negative rho (up, down):  6.304E-05 0.000E+00

     total cpu time spent up to now is        4.6 secs

     Self-consistent Calculation

     iteration #  1     ecut=    40.00 Ry     beta= 0.70
     Davidson diagonalization with overlap
     ethr =  1.00E-06,  avg # of iterations =  4.4

     negative rho (up, down):  6.332E-05 0.000E+00

     total cpu time spent up to now is        4.9 secs

     total energy              =     -88.28944920 Ry
     Harris-Foulkes estimate   =     -88.28768415 Ry
     estimated scf accuracy    <       0.00004924 Ry

     iteration #  2     ecut=    40.00 Ry     beta= 0.70
     Davidson diagonalization with overlap
     ethr =  4.92E-07,  avg # of iterations =  2.0

     negative rho (up, down):  6.341E-05 0.000E+00

     total cpu time spent up to now is        5.3 secs

     total energy              =     -88.28945325 Ry
     Harris-Foulkes estimate   =     -88.28946095 Ry
     estimated scf accuracy    <       0.00001460 Ry

     iteration #  3     ecut=    40.00 Ry     beta= 0.70
     Davidson diagonalization with overlap
     ethr =  1.46E-07,  avg # of iterations =  2.0

     negative rho (up, down):  6.351E-05 0.000E+00

     total cpu time spent up to now is        5.6 secs

     total energy              =     -88.28945684 Ry
     Harris-Foulkes estimate   =     -88.28946114 Ry
     estimated scf accuracy    <       0.00001008 Ry

     iteration #  4     ecut=    40.00 Ry     beta= 0.70
     Davidson diagonalization with overlap
     ethr =  1.01E-07,  avg # of iterations =  1.6

     negative rho (up, down):  6.362E-05 0.000E+00

     total cpu time spent up to now is        5.8 secs

     total energy              =     -88.28945896 Ry
     Harris-Foulkes estimate   =     -88.28945894 Ry
     estimated scf accuracy    <       0.00000011 Ry

     iteration #  5     ecut=    40.00 Ry     beta= 0.70
     Davidson diagonalization with overlap
     ethr =  1.13E-09,  avg # of iterations =  2.0

     negative rho (up, down):  6.370E-05 0.000E+00

     total cpu time spent up to now is        6.1 secs

     End of self-consistent calculation

          k = 0.0000 0.0000 0.0000 (   725 PWs)   bands (ev):

   -13.0586   2.3087   2.3087   3.2699   4.5036  14.2853  14.2853  14.8611
    18.5735

          k =-0.0884 0.0884-0.0884 (   712 PWs)   bands (ev):

   -12.9406   0.9682   2.2311   4.0931   5.0302  13.1164  14.7176  14.8405
    18.7688

          k =-0.1768 0.1768-0.1768 (   703 PWs)   bands (ev):

   -12.6360  -0.5889   2.0551   4.1603   6.4772  11.6594  14.2569  15.8322
    18.0109

          k =-0.2652 0.2652-0.2652 (   715 PWs)   bands (ev):

   -12.2976  -1.7323   1.8848   4.1126   7.5006  10.6539  14.0459  16.5284
    17.6278

          k = 0.3536-0.3536 0.3536 (   718 PWs)   bands (ev):

   -12.1450  -2.1596   1.8160   4.0885   7.8322  10.2974  14.1114  16.3688
    17.4215

          k = 0.0000 0.0000-0.1768 (   701 PWs)   bands (ev):

   -12.9099   1.0263   2.1240   3.7353   5.4011  12.9976  14.4223  14.5034
    18.5495

          k =-0.0884 0.0884-0.2652 (   702 PWs)   bands (ev):

   -12.6751  -0.1019   1.9113   3.7604   6.5328  11.8437  13.5448  15.2712
    17.8992

          k =-0.1768 0.1768-0.3536 (   703 PWs)   bands (ev):

   -12.3471  -1.2501   1.6053   3.7883   7.7700  10.7039  13.1728  16.2362
    17.1631

          k = 0.4419-0.4419 0.2652 (   708 PWs)   bands (ev):

   -12.1196  -1.9193   1.3758   3.8736   8.5315   9.9627  13.4150  16.3549
    17.1715

          k = 0.3536-0.3536 0.1768 (   714 PWs)   bands (ev):

   -12.1587  -1.8706   1.3479   4.0357   8.3341  10.2423  13.3220  16.4221
    17.4227

          k = 0.2652-0.2652 0.0884 (   715 PWs)   bands (ev):

   -12.4342  -1.1527   1.5612   4.2167   7.3797  11.2311  13.1986  16.5257
    17.5052

          k = 0.1768-0.1768 0.0000 (   694 PWs)   bands (ev):

   -12.7538  -0.0533   1.9411   4.3372   6.0089  12.2802  13.9845  15.6225
    18.5131

          k = 0.0000 0.0000-0.3536 (   713 PWs)   bands (ev):

   -12.5331  -0.2912   1.6899   3.4459   6.9323  11.1860  13.0145  15.1024
    18.0034

          k =-0.0884 0.0884-0.4419 (   706 PWs)   bands (ev):

   -12.2785  -0.9071   1.2705   3.3828   7.6242  10.5563  12.5393  15.6106
    17.7832

          k = 0.5303-0.5303 0.1768 (   703 PWs)   bands (ev):

   -12.0539  -1.3835   0.6717   3.4796   8.4702  10.2508  12.6618  15.5718
    17.3677

          k = 0.4419-0.4419 0.0884 (   707 PWs)   bands (ev):

   -12.0073  -1.5649   0.4220   3.7061   9.1923   9.9928  12.7280  15.7392
    17.0511

          k = 0.3536-0.3536 0.0000 (   708 PWs)   bands (ev):

   -12.1722  -1.4867   0.8013   3.9978   8.7097  10.6287  12.2691  16.7066
    17.0436

          k = 0.0000 0.0000-0.5303 (   709 PWs)   bands (ev):

   -12.1273  -1.0853   1.2935   3.1371   7.0509  10.0813  12.8290  15.8367
    18.1648

          k = 0.6187-0.6187 0.0884 (   712 PWs)   bands (ev):

   -11.9816  -1.2331   0.7615   3.1528   7.2731  10.1318  13.0193  15.5701
    18.0536

          k = 0.5303-0.5303 0.0000 (   706 PWs)   bands (ev):

   -11.9319  -1.1833   0.0538   3.3656   8.1566  10.5534  13.1810  14.6209
    17.5770

          k = 0.0000 0.0000 0.7071 (   724 PWs)   bands (ev):

   -11.9496  -1.3474   1.1370   3.0271   6.6335   9.7887  13.2446  16.1942
    18.3201

          k = 0.0000 0.1768-0.3536 (   708 PWs)   bands (ev):

   -12.4066  -1.0093   1.4270   3.9865   7.4690  11.1308  12.7687  16.0312
    18.1570

          k = 0.6187-0.4419 0.2652 (   711 PWs)   bands (ev):

   -12.1376  -1.4860   0.8027   3.8554   8.6170  10.3996  12.5676  16.0383
    17.4392

          k = 0.5303-0.3536 0.1768 (   714 PWs)   bands (ev):

   -12.0194  -1.6665   0.5366   3.7991   9.3061   9.7802  12.9940  15.6157
    17.1463

          k = 0.7071-0.5303 0.1768 (   712 PWs)   bands (ev):

   -12.0633  -1.3753   0.9327   3.3585   7.7599  10.3172  12.7509  15.7240
    18.3949

          k = 0.6187-0.4419 0.0884 (   711 PWs)   bands (ev):

   -11.9455  -1.2477   0.1593   3.2807   8.4283  10.6223  13.0479  14.3924
    18.1766

          k = 0.5303-0.3536-0.0000 (   712 PWs)   bands (ev):

   -11.9772  -1.3783   0.2733   3.4046   8.8866  10.4784  12.6052  14.8864
    18.2306

          k = 0.0000 0.1768 0.7071 (   714 PWs)   bands (ev):

   -11.9427  -1.1819   0.7602   2.7336   7.5015  10.2206  13.0462  15.1871
    18.5030

          k = 0.0000 0.3536 0.7071 (   700 PWs)   bands (ev):

   -11.9356  -0.9579   0.3706   2.4657   8.5591  10.6577  12.6022  14.1646
    19.5271

          k =-0.0884-0.0884-0.0884 (   712 PWs)   bands (ev):

   -12.9652   2.2740   2.2740   2.4896   5.2186  13.5103  14.0890  14.0890
    19.3296

          k =-0.1768-0.1768-0.1768 (   703 PWs)   bands (ev):

   -12.7292   1.4074   2.1933   2.1933   6.0085  11.8469  13.5895  13.5895
    19.0025

          k =-0.2652-0.2652-0.2652 (   715 PWs)   bands (ev):

   -12.4765   0.5792   2.1092   2.1092   6.3578  10.9643  13.0936  13.0936
    18.6337

          k = 0.3536 0.3536 0.3536 (   718 PWs)   bands (ev):

   -12.3661   0.2677   2.0738   2.0738   6.4119  10.7403  12.8947  12.8947
    18.5601

          k = 0.0884 0.0884-0.2652 (   702 PWs)   bands (ev):

   -12.6556  -0.3987   1.8963   4.1724   6.4287  11.8180  13.7721  15.4643
    18.9867

          k =-0.0884-0.0884-0.2652 (   702 PWs)   bands (ev):

   -12.7214   0.8763   1.9870   2.7501   6.3378  11.9348  13.3270  14.0938
    18.8116

          k = 0.1768 0.1768-0.3536 (   703 PWs)   bands (ev):

   -12.3245  -1.5061   1.7329   4.0147   7.4844  10.8033  13.3124  16.2346
    19.0428

          k =-0.1768-0.1768-0.3536 (   703 PWs)   bands (ev):

   -12.4719   0.6278   1.9052   1.9133   6.9521  10.8823  12.7205  13.6371
    19.7033

          k =-0.4419-0.4419 0.2652 (   708 PWs)   bands (ev):

   -12.1186  -2.0043   1.7118   3.6675   8.1528  10.1134  13.3539  16.2712
    18.9115

          k = 0.4419 0.4419 0.2652 (   708 PWs)   bands (ev):

   -12.3102   0.4818   1.3848   1.9200   7.2022  10.3665  12.5591  13.3466
    19.7156

          k =-0.3536-0.3536 0.1768 (   714 PWs)   bands (ev):

   -12.1912  -1.7072   1.8440   3.3525   8.2433  10.1172  13.1350  16.1166
    18.4135

          k = 0.3536 0.3536 0.1768 (   714 PWs)   bands (ev):

   -12.3464   0.5045   1.3840   2.0255   7.2047  10.4691  12.5553  13.4074
    19.7884

          k =-0.2652-0.2652 0.0884 (   715 PWs)   bands (ev):

   -12.4846  -0.6903   2.0628   3.1850   7.3636  11.0701  13.0310  15.4682
    18.0201

          k = 0.2652 0.2652 0.0884 (   715 PWs)   bands (ev):

   -12.5548   0.5947   2.0295   2.1601   6.8508  11.2326  12.7680  13.8610
    19.9542

          k =-0.1768-0.1768 0.0000 (   694 PWs)   bands (ev):

   -12.7987   0.7793   2.2514   3.0437   6.0516  12.3896  13.5750  14.4805
    18.9282

          k = 0.0884 0.0884-0.4419 (   706 PWs)   bands (ev):

   -12.2554  -1.2408   1.4852   3.5911   7.3862  10.4843  12.8280  16.0093
    18.6250

          k =-0.0884-0.0884-0.4419 (   706 PWs)   bands (ev):

   -12.3321  -0.2336   1.5616   2.4611   7.4072  10.5484  12.4000  14.7521
    18.4155

          k =-0.5303-0.5303 0.1768 (   703 PWs)   bands (ev):

   -12.0519  -1.6604   1.4666   3.0622   7.9027  10.1044  12.8988  16.1898
    19.2065

          k = 0.5303 0.5303 0.1768 (   703 PWs)   bands (ev):

   -12.1686  -0.0683   1.4343   1.5746   7.8314  10.0970  12.2782  14.4680
    19.3432

          k =-0.4419-0.4419 0.0884 (   707 PWs)   bands (ev):

   -12.0647  -1.3928   1.6389   2.3877   8.5803   9.7696  12.5598  15.6775
    20.1848

          k = 0.4419 0.4419 0.0884 (   707 PWs)   bands (ev):

   -12.1474  -0.0989   1.1455   1.7204   8.3204   9.7937  12.2338  14.4139
    20.6069

          k =-0.3536-0.3536 0.0000 (   708 PWs)   bands (ev):

   -12.2820  -0.5187   1.9236   1.9987   8.2501  10.2021  12.2194  14.7446
    19.6757

          k =-0.6187-0.6187 0.0884 (   712 PWs)   bands (ev):

   -11.9806  -1.4080   1.2324   2.9212   7.0570   9.9800  13.1085  16.1872
    18.3648

          k = 0.6187 0.6187 0.0884 (   712 PWs)   bands (ev):

   -12.0163  -0.9986   1.2609   2.4341   7.1379  10.0381  12.8148  15.6659
    18.2673

          k =-0.5303-0.5303 0.0000 (   706 PWs)   bands (ev):

   -11.9909  -1.0466   1.4010   1.9747   7.7396  10.0897  12.6843  15.5677
    18.8233

          k =-0.1768-0.0000-0.3536 (   708 PWs)   bands (ev):

   -12.4786  -0.1264   1.7985   2.7064   7.3709  11.0443  12.5179  14.7183
    18.3995

          k =-0.4419-0.6187 0.2652 (   711 PWs)   bands (ev):

   -12.1367  -1.6174   1.1454   3.6773   8.3390  10.3647  12.6698  16.0157
    18.7516

          k = 0.4419 0.6187 0.2652 (   711 PWs)   bands (ev):

   -12.2716   0.0593   1.5143   1.7565   7.9940  10.2065  12.1740  14.2248
    19.8143

          k =-0.2652-0.4419 0.6187 (   711 PWs)   bands (ev):

   -12.1934  -1.1296   1.4546   2.8268   8.5685  10.0667  12.3741  15.4264
    18.3186

          k =-0.3536-0.5303 0.1768 (   714 PWs)   bands (ev):

   -12.0425  -1.6860   1.1724   3.1892   8.9973   9.6629  12.7903  15.6739
    18.6743

          k = 0.3536 0.5303 0.1768 (   714 PWs)   bands (ev):

   -12.1825   0.4063   0.8804   1.6244   8.2322   9.8066  12.2183  14.0371
    20.8780

          k = 0.5303 0.7071 0.1768 (   712 PWs)   bands (ev):

   -12.1216  -0.7497   1.1181   2.4939   7.8591  10.3067  12.2527  15.1350
    18.4031

          k =-0.4419-0.6187 0.0884 (   711 PWs)   bands (ev):

   -11.9693  -1.3393   0.9335   2.6314   8.2319  10.2310  12.7607  15.1690
    19.4144

          k = 0.4419 0.6187 0.0884 (   711 PWs)   bands (ev):

   -12.0298  -0.5766   1.1039   1.7241   8.2659  10.1367  12.2401  14.8031
    19.3667

          k =-0.0884-0.4419 0.6187 (   711 PWs)   bands (ev):

   -11.9703  -1.1260   0.4479   2.8461   8.5023  10.4605  12.5236  14.7094
    18.5224

          k =-0.3536-0.5303-0.0000 (   712 PWs)   bands (ev):

   -12.0606  -0.7753   1.2276   1.9069   8.7860   9.8459  12.1522  14.9012
    19.8807

     the Fermi energy is     9.4751 ev

!    total energy              =     -88.28945900 Ry
     Harris-Foulkes estimate   =     -88.28945900 Ry
     estimated scf accuracy    <          4.1E-09 Ry

     total all-electron energy =       -88.289459 Ry

     The total energy is the sum of the following terms:

     one-electron contribution =      -8.69416922 Ry
     hartree contribution      =      10.78580585 Ry
     xc contribution           =      -9.67331582 Ry
     ewald contribution        =     -31.72841608 Ry
     one-center paw contrib.   =     -48.97936223 Ry
     smearing contrib. (-TS)   =      -0.00000149 Ry

     convergence has been achieved in   5 iterations

     negative rho (up, down):  6.370E-05 0.000E+00

     Forces acting on atoms (cartesian axes, Ry/au):

     atom    1 type  1   force =    -0.01678390   -0.01678390   -0.01678390
     atom    2 type  2   force =     0.01678390    0.01678390    0.01678390

     Total force =     0.041112     Total SCF correction =     0.000067

     number of scf cycles    =   2
     number of bfgs steps    =   1

     energy   old            =     -88.2877233538 Ry
     energy   new            =     -88.2894589953 Ry

     CASE: energy  _new < energy  _old


     WARNING: bfgs curvature condition failed, Theta= 0.814
     new trust radius        =       0.0325355224 bohr
     new conv_thr            =       0.0000000017 Ry


ATOMIC_POSITIONS (alat)
O       -0.005813114  -0.005813114  -0.005813114
Si       0.505813114   0.505813114   0.505813114



     Writing output data file relax.save/
     NEW-OLD atomic charge density approx. for the potential

     negative rho (up, down):  5.687E-05 0.000E+00

     total cpu time spent up to now is        6.2 secs

     Self-consistent Calculation

     iteration #  1     ecut=    40.00 Ry     beta= 0.70
     Davidson diagonalization with overlap
     ethr =  1.00E-06,  avg # of iterations =  4.5

     negative rho (up, down):  5.738E-05 0.000E+00

     total cpu time spent up to now is        6.6 secs

     total energy              =     -88.29131516 Ry
     Harris-Foulkes estimate   =     -88.28922598 Ry
     estimated scf accuracy    <       0.00005917 Ry

     iteration #  2     ecut=    40.00 Ry     beta= 0.70
     Davidson diagonalization with overlap
     ethr =  5.92E-07,  avg # of iterations =  2.0

     negative rho (up, down):  5.770E-05 0.000E+00

     total cpu time spent up to now is        6.8 secs

     total energy              =     -88.29132068 Ry
     Harris-Foulkes estimate   =     -88.29132861 Ry
     estimated scf accuracy    <       0.00001542 Ry

     iteration #  3     ecut=    40.00 Ry     beta= 0.70
     Davidson diagonalization with overlap
     ethr =  1.54E-07,  avg # of iterations =  2.0

     negative rho (up, down):  5.796E-05 0.000E+00

     total cpu time spent up to now is        7.0 secs

     total energy              =     -88.29132419 Ry
     Harris-Foulkes estimate   =     -88.29132928 Ry
     estimated scf accuracy    <       0.00001171 Ry

     iteration #  4     ecut=    40.00 Ry     beta= 0.70
     Davidson diagonalization with overlap
     ethr =  1.17E-07,  avg # of iterations =  1.7

     negative rho (up, down):  5.824E-05 0.000E+00

     total cpu time spent up to now is        7.2 secs

     total energy              =     -88.29132672 Ry
     Harris-Foulkes estimate   =     -88.29132671 Ry
     estimated scf accuracy    <       0.00000016 Ry

     iteration #  5     ecut=    40.00 Ry     beta= 0.70
     Davidson diagonalization with overlap
     ethr =  1.63E-09,  avg # of iterations =  2.0

     negative rho (up, down):  5.834E-05 0.000E+00

     total cpu time spent up to now is        7.4 secs

     total energy              =     -88.29132677 Ry
     Harris-Foulkes estimate   =     -88.29132677 Ry
     estimated scf accuracy    <          4.5E-09 Ry

     iteration #  6     ecut=    40.00 Ry     beta= 0.70
     Davidson diagonalization with overlap
     ethr =  4.46E-11,  avg # of iterations =  1.8

     negative rho (up, down):  5.839E-05 0.000E+00

     total cpu time spent up to now is        7.6 secs

     End of self-consistent calculation

          k = 0.0000 0.0000 0.0000 (   725 PWs)   bands (ev):

   -13.0268   2.3533   2.3533   3.2454   4.5287  14.3204  14.3204  14.8271
    18.6417

          k =-0.0884 0.0884-0.0884 (   712 PWs)   bands (ev):

   -12.9084   0.9912   2.2757   4.1009   5.0430  13.1302  14.7470  14.8448
    18.7343

          k =-0.1768 0.1768-0.1768 (   703 PWs)   bands (ev):

   -12.6031  -0.5681   2.0998   4.1767   6.4812  11.6553  14.3054  15.8218
    18.0002

          k =-0.2652 0.2652-0.2652 (   715 PWs)   bands (ev):

   -12.2638  -1.7123   1.9297   4.1299   7.5118  10.6170  14.1447  16.3896
    17.4697

          k = 0.3536-0.3536 0.3536 (   718 PWs)   bands (ev):

   -12.1107  -2.1401   1.8609   4.1058   7.8551  10.2385  14.2364  16.2359
    17.2458

          k = 0.0000 0.0000-0.1768 (   701 PWs)   bands (ev):

   -12.8776   1.0491   2.1678   3.7476   5.4105  13.0164  14.4070  14.5276
    18.5289

          k =-0.0884 0.0884-0.2652 (   702 PWs)   bands (ev):

   -12.6423  -0.0799   1.9548   3.7772   6.5348  11.8625  13.5224  15.2816
    17.9010

          k =-0.1768 0.1768-0.3536 (   703 PWs)   bands (ev):

   -12.3135  -1.2287   1.6482   3.8065   7.7697  10.6951  13.1817  16.1787
    17.2156

          k = 0.4419-0.4419 0.2652 (   708 PWs)   bands (ev):

   -12.0853  -1.8984   1.4180   3.8921   8.5542   9.9093  13.4519  16.2991
    17.1676

          k = 0.3536-0.3536 0.1768 (   714 PWs)   bands (ev):

   -12.1246  -1.8497   1.3896   4.0539   8.3485  10.2025  13.3448  16.4091
    17.3904

          k = 0.2652-0.2652 0.0884 (   715 PWs)   bands (ev):

   -12.4008  -1.1315   1.6033   4.2343   7.3808  11.2360  13.1860  16.5576
    17.4861

          k = 0.1768-0.1768 0.0000 (   694 PWs)   bands (ev):

   -12.7212  -0.0317   1.9844   4.3528   6.0134  12.3020  13.9641  15.6709
    18.4753

          k = 0.0000 0.0000-0.3536 (   713 PWs)   bands (ev):

   -12.5001  -0.2659   1.7320   3.4634   6.9231  11.2195  12.9655  15.1030
    18.0238

          k =-0.0884 0.0884-0.4419 (   706 PWs)   bands (ev):

   -12.2449  -0.8802   1.3105   3.4017   7.5952  10.6013  12.4910  15.5897
    17.8248

          k = 0.5303-0.5303 0.1768 (   703 PWs)   bands (ev):

   -12.0197  -1.3571   0.7088   3.5000   8.4188  10.2993  12.6329  15.5366
    17.4134

          k = 0.4419-0.4419 0.0884 (   707 PWs)   bands (ev):

   -11.9730  -1.5404   0.4585   3.7265   9.1254  10.0496  12.6975  15.7291
    17.0877

          k = 0.3536-0.3536 0.0000 (   708 PWs)   bands (ev):

   -12.1383  -1.4642   0.8398   4.0169   8.6946  10.6602  12.2150  16.7301
    17.0646

          k = 0.0000 0.0000-0.5303 (   709 PWs)   bands (ev):

   -12.0935  -1.0531   1.3340   3.1551   7.0049  10.1206  12.7895  15.8127
    18.2097

          k = 0.6187-0.6187 0.0884 (   712 PWs)   bands (ev):

   -11.9475  -1.1985   0.7965   3.1731   7.2147  10.1809  12.9801  15.5402
    18.1013

          k = 0.5303-0.5303 0.0000 (   706 PWs)   bands (ev):

   -11.8976  -1.1502   0.0842   3.3872   8.0912  10.6217  13.1257  14.6076
    17.6198

          k = 0.0000 0.0000 0.7071 (   724 PWs)   bands (ev):

   -11.9156  -1.3112   1.1770   3.0455   6.5747   9.8233  13.2132  16.1579
    18.3757

          k = 0.0000 0.1768-0.3536 (   708 PWs)   bands (ev):

   -12.3732  -0.9861   1.4681   4.0048   7.4592  11.1687  12.7165  16.0299
    18.2148

          k = 0.6187-0.4419 0.2652 (   711 PWs)   bands (ev):

   -12.1036  -1.4626   0.8415   3.8748   8.5890  10.4355  12.5208  16.0298
    17.5036

          k = 0.5303-0.3536 0.1768 (   714 PWs)   bands (ev):

   -11.9850  -1.6432   0.5747   3.8187   9.2396   9.8333  12.9653  15.6069
    17.2095

          k = 0.7071-0.5303 0.1768 (   712 PWs)   bands (ev):

   -12.0294  -1.3459   0.9705   3.3774   7.7122  10.3682  12.7033  15.6977
    18.4581

          k = 0.6187-0.4419 0.0884 (   711 PWs)   bands (ev):

   -11.9113  -1.2168   0.1923   3.2994   8.3652  10.6958  12.9829  14.3853
    18.2433

          k = 0.5303-0.3536-0.0000 (   712 PWs)   bands (ev):

   -11.9430  -1.3507   0.3083   3.4233   8.8234  10.5493  12.5535  14.8747
    18.2966

          k = 0.0000 0.1768 0.7071 (   714 PWs)   bands (ev):

   -11.9085  -1.1458   0.7951   2.7491   7.4460  10.2633  13.0199  15.1528
    18.5502

          k = 0.0000 0.3536 0.7071 (   700 PWs)   bands (ev):

   -11.9013  -0.9220   0.4029   2.4780   8.4997  10.7120  12.5981  14.1110
    19.6280

          k =-0.0884-0.0884-0.0884 (   712 PWs)   bands (ev):

   -12.9330   2.3189   2.3189   2.4803   5.2297  13.4916  14.1122  14.1122
    19.3426

          k =-0.1768-0.1768-0.1768 (   703 PWs)   bands (ev):

   -12.6962   1.4051   2.2391   2.2391   6.0173  11.8243  13.5911  13.5911
    18.9887

          k =-0.2652-0.2652-0.2652 (   715 PWs)   bands (ev):

   -12.4424   0.5793   2.1560   2.1560   6.3701  10.9307  13.0811  13.0811
    18.6173

          k = 0.3536 0.3536 0.3536 (   718 PWs)   bands (ev):

   -12.3316   0.2683   2.1210   2.1210   6.4263  10.7016  12.8778  12.8778
    18.5433

          k = 0.0884 0.0884-0.2652 (   702 PWs)   bands (ev):

   -12.6229  -0.3763   1.9395   4.1888   6.4291  11.8358  13.7616  15.4695
    18.9411

          k =-0.0884-0.0884-0.2652 (   702 PWs)   bands (ev):

   -12.6885   0.8952   2.0308   2.7728   6.3436  11.9327  13.3121  14.1017
    18.7975

          k = 0.1768 0.1768-0.3536 (   703 PWs)   bands (ev):

   -12.2910  -1.4842   1.7762   4.0323   7.4827  10.7913  13.3352  16.1806
    18.9918

          k =-0.1768-0.1768-0.3536 (   703 PWs)   bands (ev):

   -12.4381   0.6391   1.9464   1.9497   6.9613  10.8539  12.7132  13.6296
    19.6437

          k =-0.4419-0.4419 0.2652 (   708 PWs)   bands (ev):

   -12.0844  -1.9829   1.7559   3.6850   8.1652  10.0667  13.4054  16.1721
    18.8349

          k = 0.4419 0.4419 0.2652 (   708 PWs)   bands (ev):

   -12.2757   0.4848   1.4264   1.9657   7.2174  10.3236  12.5543  13.3292
    19.6793

          k =-0.3536-0.3536 0.1768 (   714 PWs)   bands (ev):

   -12.1571  -1.6859   1.8891   3.3696   8.2592  10.0674  13.1872  16.0070
    18.5201

          k = 0.3536 0.3536 0.1768 (   714 PWs)   bands (ev):

   -12.3121   0.5090   1.4230   2.0721   7.2200  10.4271  12.5543  13.3868
    19.7602

          k =-0.2652-0.2652 0.0884 (   715 PWs)   bands (ev):

   -12.4512  -0.6691   2.1086   3.2021   7.3679  11.0526  13.0548  15.4246
    18.0497

          k = 0.2652 0.2652 0.0884 (   715 PWs)   bands (ev):

   -12.5213   0.6096   2.0562   2.2068   6.8599  11.2065  12.7709  13.8469
    19.9311

          k =-0.1768-0.1768 0.0000 (   694 PWs)   bands (ev):

   -12.7660   0.7998   2.2971   3.0610   6.0588  12.3876  13.5772  14.4884
    18.8952

          k = 0.0884 0.0884-0.4419 (   706 PWs)   bands (ev):

   -12.2218  -1.2141   1.5267   3.6097   7.3585  10.5168  12.7901  15.9810
    18.6846

          k =-0.0884-0.0884-0.4419 (   706 PWs)   bands (ev):

   -12.2984  -0.2048   1.6036   2.4771   7.3898  10.5640  12.3728  14.7424
    18.4226

          k =-0.5303-0.5303 0.1768 (   703 PWs)   bands (ev):

   -12.0178  -1.6335   1.5088   3.0789   7.8722  10.1123  12.8963  16.1282
    19.2640

          k = 0.5303 0.5303 0.1768 (   703 PWs)   bands (ev):

   -12.1344  -0.0334   1.4431   1.6176   7.8151  10.0876  12.2759  14.4468
    19.3454

          k =-0.4419-0.4419 0.0884 (   707 PWs)   bands (ev):

   -12.0304  -1.3662   1.6827   2.4020   8.5651   9.7494  12.5816  15.6116
    20.2118

          k = 0.4419 0.4419 0.0884 (   707 PWs)   bands (ev):

   -12.1130  -0.0643   1.1527   1.7648   8.3177   9.7641  12.2426  14.3821
    20.6134

          k =-0.3536-0.3536 0.0000 (   708 PWs)   bands (ev):

   -12.2479  -0.4943   1.9693   2.0143   8.2572  10.1658  12.2365  14.7041
    19.7121

          k =-0.6187-0.6187 0.0884 (   712 PWs)   bands (ev):

   -11.9465  -1.3744   1.2730   2.9376   7.0057  10.0120  13.0803  16.1450
    18.4201

          k = 0.6187 0.6187 0.0884 (   712 PWs)   bands (ev):

   -11.9822  -0.9623   1.3016   2.4461   7.0906  10.0664  12.7932  15.6357
    18.3000

          k =-0.5303-0.5303 0.0000 (   706 PWs)   bands (ev):

   -11.9566  -1.0118   1.4431   1.9841   7.6993  10.1023  12.6820  15.5241
    18.8551

          k =-0.1768-0.0000-0.3536 (   708 PWs)   bands (ev):

   -12.4451  -0.1033   1.8416   2.7254   7.3696  11.0444  12.5059  14.7018
    18.4082

          k =-0.4419-0.6187 0.2652 (   711 PWs)   bands (ev):

   -12.1027  -1.5934   1.1851   3.6959   8.3201  10.3749  12.6523  15.9864
    18.8080

          k = 0.4419 0.6187 0.2652 (   711 PWs)   bands (ev):

   -12.2375   0.0857   1.5382   1.7925   7.9960  10.1793  12.1783  14.1995
    19.8205

          k =-0.2652-0.4419 0.6187 (   711 PWs)   bands (ev):

   -12.1594  -1.1051   1.4963   2.8443   8.5565  10.0554  12.3891  15.3693
    18.3633

          k =-0.3536-0.5303 0.1768 (   714 PWs)   bands (ev):

   -12.0082  -1.6615   1.2126   3.2071   8.9814   9.6484  12.8103  15.6151
    18.7066

          k = 0.3536 0.5303 0.1768 (   714 PWs)   bands (ev):

   -12.1481   0.4465   0.8837   1.6671   8.2409   9.7673  12.2248  14.0096
    20.8751

          k = 0.5303 0.7071 0.1768 (   712 PWs)   bands (ev):

   -12.0876  -0.7174   1.1561   2.5092   7.8189  10.3414  12.2312  15.1023
    18.4366

          k =-0.4419-0.6187 0.0884 (   711 PWs)   bands (ev):

   -11.9350  -1.3080   0.9713   2.6455   8.1840  10.2608  12.7537  15.1243
    19.4800

          k = 0.4419 0.6187 0.0884 (   711 PWs)   bands (ev):

   -11.9955  -0.5391   1.1414   1.7324   8.2251  10.1542  12.2427  14.7616
    19.4162

          k =-0.0884-0.4419 0.6187 (   711 PWs)   bands (ev):

   -11.9360  -1.0941   0.4816   2.8630   8.4419  10.5151  12.5093  14.6651
    18.5699

          k =-0.3536-0.5303-0.0000 (   712 PWs)   bands (ev):

   -12.0262  -0.7434   1.2664   1.9194   8.7483   9.8544  12.1660  14.8526
    19.9579

     the Fermi energy is     9.4346 ev

!    total energy              =     -88.29132677 Ry
     Harris-Foulkes estimate   =     -88.29132677 Ry
     estimated scf accuracy    <          1.2E-10 Ry

     total all-electron energy =       -88.291327 Ry

     The total energy is the sum of the following terms:

     one-electron contribution =      -8.63333855 Ry
     hartree contribution      =      10.76086656 Ry
     xc contribution           =      -9.67065536 Ry
     ewald contribution        =     -31.76862293 Ry
     one-center paw contrib.   =     -48.97957585 Ry
     smearing contrib. (-TS)   =      -0.00000064 Ry

     convergence has been achieved in   6 iterations

     negative rho (up, down):  5.839E-05 0.000E+00

     Forces acting on atoms (cartesian axes, Ry/au):

     atom    1 type  1   force =    -0.01632906   -0.01632906   -0.01632906
     atom    2 type  2   force =     0.01632906    0.01632906    0.01632906

     Total force =     0.039998     Total SCF correction =     0.000004

     number of scf cycles    =   3
     number of bfgs steps    =   2

     energy   old            =     -88.2894589953 Ry
     energy   new            =     -88.2913267681 Ry

     CASE: energy  _new < energy  _old

     new trust radius        =       0.0488032836 bohr
     new conv_thr            =       0.0000000016 Ry


ATOMIC_POSITIONS (alat)
O       -0.010380560  -0.010380560  -0.010380560
Si       0.510380560   0.510380560   0.510380560



     Writing output data file relax.save/
     NEW-OLD atomic charge density approx. for the potential

     negative rho (up, down):  6.608E-05 0.000E+00

     total cpu time spent up to now is        7.7 secs

     Self-consistent Calculation

     iteration #  1     ecut=    40.00 Ry     beta= 0.70
     Davidson diagonalization with overlap
     ethr =  1.00E-06,  avg # of iterations =  5.0

     negative rho (up, down):  6.617E-05 0.000E+00

     total cpu time spent up to now is        8.1 secs

     total energy              =     -88.29398108 Ry
     Harris-Foulkes estimate   =     -88.29030508 Ry
     estimated scf accuracy    <       0.00013507 Ry

     iteration #  2     ecut=    40.00 Ry     beta= 0.70
     Davidson diagonalization with overlap
     ethr =  1.35E-06,  avg # of iterations =  2.0

     negative rho (up, down):  6.645E-05 0.000E+00

     total cpu time spent up to now is        8.3 secs

     total energy              =     -88.29399292 Ry
     Harris-Foulkes estimate   =     -88.29401588 Ry
     estimated scf accuracy    <       0.00004377 Ry

     iteration #  3     ecut=    40.00 Ry     beta= 0.70
     Davidson diagonalization with overlap
     ethr =  4.38E-07,  avg # of iterations =  2.0

     negative rho (up, down):  6.671E-05 0.000E+00

     total cpu time spent up to now is        8.5 secs

     total energy              =     -88.29400334 Ry
     Harris-Foulkes estimate   =     -88.29401505 Ry
     estimated scf accuracy    <       0.00002629 Ry

     iteration #  4     ecut=    40.00 Ry     beta= 0.70
     Davidson diagonalization with overlap
     ethr =  2.63E-07,  avg # of iterations =  1.8

     negative rho (up, down):  6.699E-05 0.000E+00

     total cpu time spent up to now is        8.7 secs

     total energy              =     -88.29400918 Ry
     Harris-Foulkes estimate   =     -88.29400916 Ry
     estimated scf accuracy    <       0.00000044 Ry

     iteration #  5     ecut=    40.00 Ry     beta= 0.70
     Davidson diagonalization with overlap
     ethr =  4.38E-09,  avg # of iterations =  2.0

     negative rho (up, down):  6.712E-05 0.000E+00

     total cpu time spent up to now is        8.9 secs

     total energy              =     -88.29400927 Ry
     Harris-Foulkes estimate   =     -88.29400927 Ry
     estimated scf accuracy    <          9.6E-09 Ry

     iteration #  6     ecut=    40.00 Ry     beta= 0.70
     Davidson diagonalization with overlap
     ethr =  9.58E-11,  avg # of iterations =  2.0

     negative rho (up, down):  6.718E-05 0.000E+00

     total cpu time spent up to now is        9.1 secs

     End of self-consistent calculation

          k = 0.0000 0.0000 0.0000 (   725 PWs)   bands (ev):

   -12.9731   2.4317   2.4317   3.2064   4.5662  14.3758  14.3758  14.7521
    18.7789

          k =-0.0884 0.0884-0.0884 (   712 PWs)   bands (ev):

   -12.8544   1.0318   2.3542   4.1130   5.0638  13.1491  14.7904  14.8410
    18.6808

          k =-0.1768 0.1768-0.1768 (   703 PWs)   bands (ev):

   -12.5478  -0.5307   2.1786   4.2004   6.4869  11.6519  14.3736  15.7852
    18.0009

          k =-0.2652 0.2652-0.2652 (   715 PWs)   bands (ev):

   -12.2069  -1.6763   2.0089   4.1538   7.5268  10.5670  14.2907  16.1693
    17.2389

          k = 0.3536-0.3536 0.3536 (   718 PWs)   bands (ev):

   -12.0531  -2.1048   1.9403   4.1293   7.8886  10.1554  14.4229  16.0178
    16.9885

          k = 0.0000 0.0000-0.1768 (   701 PWs)   bands (ev):

   -12.8234   1.0888   2.2448   3.7663   5.4270  13.0412  14.3796  14.5646
    18.4783

          k =-0.0884 0.0884-0.2652 (   702 PWs)   bands (ev):

   -12.5871  -0.0412   2.0314   3.8012   6.5391  11.8914  13.4876  15.2903
    17.8900

          k =-0.1768 0.1768-0.3536 (   703 PWs)   bands (ev):

   -12.2569  -1.1906   1.7238   3.8313   7.7677  10.6849  13.1928  16.0816
    17.2769

          k = 0.4419-0.4419 0.2652 (   708 PWs)   bands (ev):

   -12.0277  -1.8609   1.4924   3.9167   8.5859   9.8340  13.4981  16.1986
    17.1477

          k = 0.3536-0.3536 0.1768 (   714 PWs)   bands (ev):

   -12.0673  -1.8120   1.4631   4.0783   8.3673  10.1478  13.3708  16.3483
    17.3572

          k = 0.2652-0.2652 0.0884 (   715 PWs)   bands (ev):

   -12.3449  -1.0930   1.6774   4.2585   7.3811  11.2469  13.1645  16.5458
    17.5030

          k = 0.1768-0.1768 0.0000 (   694 PWs)   bands (ev):

   -12.6666   0.0073   2.0606   4.3751   6.0208  12.3370  13.9305  15.7298
    18.4264

          k = 0.0000 0.0000-0.3536 (   713 PWs)   bands (ev):

   -12.4443  -0.2218   1.8057   3.4870   6.9106  11.2715  12.8941  15.1007
    18.0283

          k =-0.0884 0.0884-0.4419 (   706 PWs)   bands (ev):

   -12.1882  -0.8334   1.3808   3.4264   7.5501  10.6738  12.4218  15.5526
    17.8609

          k = 0.5303-0.5303 0.1768 (   703 PWs)   bands (ev):

   -11.9621  -1.3107   0.7742   3.5265   8.3388  10.3760  12.5924  15.4799
    17.4600

          k = 0.4419-0.4419 0.0884 (   707 PWs)   bands (ev):

   -11.9153  -1.4965   0.5227   3.7530   9.0269  10.1329  12.6531  15.6954
    17.1480

          k = 0.3536-0.3536 0.0000 (   708 PWs)   bands (ev):

   -12.0813  -1.4234   0.9075   4.0422   8.6679  10.7135  12.1353  16.6195
    17.2352

          k = 0.0000 0.0000-0.5303 (   709 PWs)   bands (ev):

   -12.0364  -0.9971   1.4048   3.1768   6.9330  10.1857  12.7361  15.7697
    18.2456

          k = 0.6187-0.6187 0.0884 (   712 PWs)   bands (ev):

   -11.8899  -1.1386   0.8577   3.1982   7.1236  10.2616  12.9275  15.4891
    18.1418

          k = 0.5303-0.5303 0.0000 (   706 PWs)   bands (ev):

   -11.8398  -1.0925   0.1377   3.4148   7.9911  10.7294  13.0460  14.5851
    17.6619

          k = 0.0000 0.0000 0.7071 (   724 PWs)   bands (ev):

   -11.8580  -1.2484   1.2467   3.0666   6.4822   9.8830  13.1733  16.0949
    18.4233

          k = 0.0000 0.1768-0.3536 (   708 PWs)   bands (ev):

   -12.3172  -0.9443   1.5402   4.0291   7.4439  11.2314  12.6370  16.0075
    18.2997

          k = 0.6187-0.4419 0.2652 (   711 PWs)   bands (ev):

   -12.0464  -1.4208   0.9100   3.8999   8.5428  10.4946  12.4535  15.9895
    17.6086

          k = 0.5303-0.3536 0.1768 (   714 PWs)   bands (ev):

   -11.9273  -1.6015   0.6421   3.8437   9.1419   9.9108  12.9229  15.5748
    17.3111

          k = 0.7071-0.5303 0.1768 (   712 PWs)   bands (ev):

   -11.9721  -1.2939   1.0368   3.4001   7.6387  10.4514  12.6356  15.6463
    18.5272

          k = 0.6187-0.4419 0.0884 (   711 PWs)   bands (ev):

   -11.8535  -1.1625   0.2509   3.3216   8.2705  10.8122  12.8871  14.3676
    18.3261

          k = 0.5303-0.3536-0.0000 (   712 PWs)   bands (ev):

   -11.8852  -1.3018   0.3698   3.4460   8.7301  10.6589  12.4752  14.8484
    18.3915

          k = 0.0000 0.1768 0.7071 (   714 PWs)   bands (ev):

   -11.8506  -1.0830   0.8561   2.7657   7.3606  10.3347  12.9863  15.0936
    18.5909

          k = 0.0000 0.3536 0.7071 (   700 PWs)   bands (ev):

   -11.8431  -0.8594   0.4599   2.4889   8.4117  10.7999  12.5927  14.0262
    19.7612

          k =-0.0884-0.0884-0.0884 (   712 PWs)   bands (ev):

   -12.8787   2.3977   2.3977   2.4612   5.2491  13.4527  14.1492  14.1492
    19.3724

          k =-0.1768-0.1768-0.1768 (   703 PWs)   bands (ev):

   -12.6401   1.3933   2.3191   2.3191   6.0359  11.7875  13.5947  13.5947
    18.9676

          k =-0.2652-0.2652-0.2652 (   715 PWs)   bands (ev):

   -12.3843   0.5688   2.2371   2.2371   6.3964  10.8797  13.0629  13.0629
    18.5925

          k = 0.3536 0.3536 0.3536 (   718 PWs)   bands (ev):

   -12.2724   0.2578   2.2025   2.2025   6.4566  10.6435  12.8529  12.8529
    18.5186

          k = 0.0884 0.0884-0.2652 (   702 PWs)   bands (ev):

   -12.5678  -0.3358   2.0155   4.2112   6.4304  11.8646  13.7420  15.4686
    18.8382

          k =-0.0884-0.0884-0.2652 (   702 PWs)   bands (ev):

   -12.6329   0.9248   2.1073   2.8093   6.3567  11.9254  13.2920  14.1147
    18.7584

          k = 0.1768 0.1768-0.3536 (   703 PWs)   bands (ev):

   -12.2345  -1.4442   1.8524   4.0551   7.4796  10.7772  13.3646  16.0769
    18.9130

          k =-0.1768-0.1768-0.3536 (   703 PWs)   bands (ev):

   -12.3806   0.6501   2.0035   2.0272   6.9814  10.8101  12.7042  13.6190
    19.5487

          k =-0.4419-0.4419 0.2652 (   708 PWs)   bands (ev):

   -12.0268  -1.9443   1.8335   3.7071   8.1837  10.0009  13.4758  16.0020
    18.7295

          k = 0.4419 0.4419 0.2652 (   708 PWs)   bands (ev):

   -12.2168   0.4769   1.5008   2.0451   7.2483  10.2589  12.5491  13.3029
    19.6227

          k =-0.3536-0.3536 0.1768 (   714 PWs)   bands (ev):

   -12.0996  -1.6482   1.9686   3.3917   8.2838   9.9958  13.2619  15.8260
    18.6927

          k = 0.3536 0.3536 0.1768 (   714 PWs)   bands (ev):

   -12.2535   0.5051   1.4919   2.1531   7.2509  10.3635  12.5549  13.3548
    19.7164

          k =-0.2652-0.2652 0.0884 (   715 PWs)   bands (ev):

   -12.3949  -0.6323   2.1891   3.2257   7.3758  11.0276  13.0901  15.3436
    18.1036

          k = 0.2652 0.2652 0.0884 (   715 PWs)   bands (ev):

   -12.4644   0.6297   2.0998   2.2882   6.8795  11.1657  12.7781  13.8238
    19.8930

          k =-0.1768-0.1768 0.0000 (   694 PWs)   bands (ev):

   -12.7110   0.8340   2.3775   3.0878   6.0727  12.3810  13.5814  14.4979
    18.8411

          k = 0.0884 0.0884-0.4419 (   706 PWs)   bands (ev):

   -12.1653  -1.1664   1.5996   3.6325   7.3160  10.5701  12.7361  15.9265
    18.7439

          k =-0.0884-0.0884-0.4419 (   706 PWs)   bands (ev):

   -12.2413  -0.1570   1.6768   2.4986   7.3648  10.5893  12.3369  14.7263
    18.4081

          k =-0.5303-0.5303 0.1768 (   703 PWs)   bands (ev):

   -11.9602  -1.5853   1.5828   3.0972   7.8251  10.1296  12.8939  16.0197
    19.3314

          k = 0.5303 0.5303 0.1768 (   703 PWs)   bands (ev):

   -12.0760   0.0235   1.4522   1.6922   7.7916  10.0782  12.2769  14.4126
    19.3216

          k =-0.4419-0.4419 0.0884 (   707 PWs)   bands (ev):

   -11.9723  -1.3194   1.7595   2.4172   8.5407   9.7256  12.6156  15.4993
    20.2371

          k = 0.4419 0.4419 0.0884 (   707 PWs)   bands (ev):

   -12.0544  -0.0068   1.1577   1.8422   8.3159   9.7237  12.2595  14.3301
    20.5969

          k =-0.3536-0.3536 0.0000 (   708 PWs)   bands (ev):

   -12.1901  -0.4534   2.0342   2.0492   8.2722  10.1116  12.2647  14.6354
    19.7669

          k =-0.6187-0.6187 0.0884 (   712 PWs)   bands (ev):

   -11.8889  -1.3156   1.3438   2.9548   6.9259  10.0674  13.0438  16.0711
    18.4707

          k = 0.6187 0.6187 0.0884 (   712 PWs)   bands (ev):

   -11.9244  -0.9000   1.3726   2.4573   7.0169  10.1159  12.7670  15.5843
    18.3198

          k =-0.5303-0.5303 0.0000 (   706 PWs)   bands (ev):

   -11.8984  -0.9513   1.5164   1.9899   7.6374  10.1284  12.6832  15.4502
    18.8772

          k =-0.1768-0.0000-0.3536 (   708 PWs)   bands (ev):

   -12.3886  -0.0646   1.9167   2.7529   7.3706  11.0433  12.4915  14.6738
    18.4056

          k =-0.4419-0.6187 0.2652 (   711 PWs)   bands (ev):

   -12.0455  -1.5500   1.2548   3.7193   8.2898  10.3946  12.6264  15.9200
    18.9046

          k = 0.4419 0.6187 0.2652 (   711 PWs)   bands (ev):

   -12.1793   0.1268   1.5730   1.8572   8.0032  10.1396  12.1881  14.1591
    19.8067

          k =-0.2652-0.4419 0.6187 (   711 PWs)   bands (ev):

   -12.1018  -1.0625   1.5690   2.8672   8.5372  10.0424  12.4134  15.2756
    18.4170

          k =-0.3536-0.5303 0.1768 (   714 PWs)   bands (ev):

   -11.9503  -1.6180   1.2828   3.2293   8.9496   9.6377  12.8385  15.5146
    18.7464

          k = 0.3536 0.5303 0.1768 (   714 PWs)   bands (ev):

   -12.0893   0.5079   0.8875   1.7415   8.2594   9.7099  12.2377  13.9662
    20.8382

          k = 0.5303 0.7071 0.1768 (   712 PWs)   bands (ev):

   -12.0299  -0.6625   1.2226   2.5275   7.7572  10.3990  12.2034  15.0494
    18.4611

          k =-0.4419-0.6187 0.0884 (   711 PWs)   bands (ev):

   -11.8770  -1.2529   1.0375   2.6596   8.1114  10.3116  12.7457  15.0482
    19.5504

          k = 0.4419 0.6187 0.0884 (   711 PWs)   bands (ev):

   -11.9371  -0.4747   1.2065   1.7383   8.1631  10.1876  12.2506  14.6946
    19.4640

          k =-0.0884-0.4419 0.6187 (   711 PWs)   bands (ev):

   -11.8781  -1.0384   0.5406   2.8828   8.3511  10.6017  12.4894  14.5957
    18.6182

          k =-0.3536-0.5303-0.0000 (   712 PWs)   bands (ev):

   -11.9679  -0.6886   1.3329   1.9334   8.6907   9.8738  12.1896  14.7736
    20.0578

     the Fermi energy is     9.3798 ev

!    total energy              =     -88.29400928 Ry
     Harris-Foulkes estimate   =     -88.29400928 Ry
     estimated scf accuracy    <          1.9E-10 Ry

     total all-electron energy =       -88.294009 Ry

     The total energy is the sum of the following terms:

     one-electron contribution =      -8.53067927 Ry
     hartree contribution      =      10.71847085 Ry
     xc contribution           =      -9.66569165 Ry
     ewald contribution        =     -31.83612148 Ry
     one-center paw contrib.   =     -48.97998757 Ry
     smearing contrib. (-TS)   =      -0.00000016 Ry

     convergence has been achieved in   6 iterations

     negative rho (up, down):  6.718E-05 0.000E+00

     Forces acting on atoms (cartesian axes, Ry/au):

     atom    1 type  1   force =    -0.01533866   -0.01533866   -0.01533866
     atom    2 type  2   force =     0.01533866    0.01533866    0.01533866

     Total force =     0.037572     Total SCF correction =     0.000004

     number of scf cycles    =   4
     number of bfgs steps    =   3

     energy   old            =     -88.2913267681 Ry
     energy   new            =     -88.2940092760 Ry

     CASE: energy  _new < energy  _old

     new trust radius        =       0.0732049254 bohr
     new conv_thr            =       0.0000000015 Ry


ATOMIC_POSITIONS (alat)
O       -0.017231729  -0.017231729  -0.017231729
Si       0.517231729   0.517231729   0.517231729



     Writing output data file relax.save/
     NEW-OLD atomic charge density approx. for the potential

     negative rho (up, down):  5.612E-05 0.000E+00

     total cpu time spent up to now is        9.2 secs

     Self-consistent Calculation

     iteration #  1     ecut=    40.00 Ry     beta= 0.70
     Davidson diagonalization with overlap
     ethr =  1.00E-06,  avg # of iterations =  5.6

     negative rho (up, down):  5.560E-05 0.000E+00

     total cpu time spent up to now is        9.6 secs

     total energy              =     -88.29756243 Ry
     Harris-Foulkes estimate   =     -88.29092823 Ry
     estimated scf accuracy    <       0.00031580 Ry

     iteration #  2     ecut=    40.00 Ry     beta= 0.70
     Davidson diagonalization with overlap
     ethr =  3.16E-06,  avg # of iterations =  2.0

     negative rho (up, down):  5.571E-05 0.000E+00

     total cpu time spent up to now is        9.8 secs

     total energy              =     -88.29758641 Ry
     Harris-Foulkes estimate   =     -88.29766565 Ry
     estimated scf accuracy    <       0.00015129 Ry

     iteration #  3     ecut=    40.00 Ry     beta= 0.70
     Davidson diagonalization with overlap
     ethr =  1.51E-06,  avg # of iterations =  2.0

     negative rho (up, down):  5.587E-05 0.000E+00

     total cpu time spent up to now is       10.0 secs

     total energy              =     -88.29762359 Ry
     Harris-Foulkes estimate   =     -88.29764895 Ry
     estimated scf accuracy    <       0.00005412 Ry

     iteration #  4     ecut=    40.00 Ry     beta= 0.70
     Davidson diagonalization with overlap
     ethr =  5.41E-07,  avg # of iterations =  1.8

     negative rho (up, down):  5.605E-05 0.000E+00

     total cpu time spent up to now is       10.2 secs

     total energy              =     -88.29763623 Ry
     Harris-Foulkes estimate   =     -88.29763632 Ry
     estimated scf accuracy    <       0.00000123 Ry

     iteration #  5     ecut=    40.00 Ry     beta= 0.70
     Davidson diagonalization with overlap
     ethr =  1.23E-08,  avg # of iterations =  1.9

     negative rho (up, down):  5.618E-05 0.000E+00

     total cpu time spent up to now is       10.4 secs

     total energy              =     -88.29763644 Ry
     Harris-Foulkes estimate   =     -88.29763644 Ry
     estimated scf accuracy    <       0.00000002 Ry

     iteration #  6     ecut=    40.00 Ry     beta= 0.70
     Davidson diagonalization with overlap
     ethr =  2.06E-10,  avg # of iterations =  2.0

     negative rho (up, down):  5.625E-05 0.000E+00

     total cpu time spent up to now is       10.6 secs

     End of self-consistent calculation

          k = 0.0000 0.0000 0.0000 (   725 PWs)   bands (ev):

   -12.8804   2.5738   2.5738   3.1431   4.6212  14.4656  14.4656  14.6085
    19.0361

          k =-0.0884 0.0884-0.0884 (   712 PWs)   bands (ev):

   -12.7609   1.1037   2.4967   4.1338   5.0971  13.1741  14.8212  14.8534
    18.5897

          k =-0.1768 0.1768-0.1768 (   703 PWs)   bands (ev):

   -12.4523  -0.4623   2.3221   4.2341   6.4944  11.6540  14.4609  15.6853
    17.6908

          k =-0.2652 0.2652-0.2652 (   715 PWs)   bands (ev):

   -12.1088  -1.6097   2.1535   4.1857   7.5447  10.5048  14.4893  15.8255
    16.9232

          k = 0.3536-0.3536 0.3536 (   718 PWs)   bands (ev):

   -11.9536  -2.0392   2.0851   4.1600   7.9353  10.0436  14.6804  15.6666
    16.6374

          k = 0.0000 0.0000-0.1768 (   701 PWs)   bands (ev):

   -12.7295   1.1584   2.3842   3.7962   5.4564  13.0723  14.3336  14.6218
    18.3644

          k =-0.0884 0.0884-0.2652 (   702 PWs)   bands (ev):

   -12.4915   0.0281   2.1702   3.8350   6.5482  11.9362  13.4343  15.2866
    17.8404

          k =-0.1768 0.1768-0.3536 (   703 PWs)   bands (ev):

   -12.1590  -1.1213   1.8615   3.8636   7.7609  10.6760  13.2026  15.9184
    17.3102

          k = 0.4419-0.4419 0.2652 (   708 PWs)   bands (ev):

   -11.9282  -1.7918   1.6279   3.9474   8.6260   9.7331  13.5394  16.0180
    17.0911

          k = 0.3536-0.3536 0.1768 (   714 PWs)   bands (ev):

   -11.9683  -1.7417   1.5969   4.1087   8.3885  10.0770  13.3870  16.1730
    17.3389

          k = 0.2652-0.2652 0.0884 (   715 PWs)   bands (ev):

   -12.2483  -1.0212   1.8119   4.2902   7.3789  11.2701  13.1258  16.4065
    17.6028

          k = 0.1768-0.1768 0.0000 (   694 PWs)   bands (ev):

   -12.5721   0.0789   2.1990   4.4067   6.0332  12.3950  13.8749  15.7807
    18.3732

          k = 0.0000 0.0000-0.3536 (   713 PWs)   bands (ev):

   -12.3476  -0.1430   1.9386   3.5170   6.8941  11.3551  12.7904  15.0899
    17.9786

          k =-0.0884 0.0884-0.4419 (   706 PWs)   bands (ev):

   -12.0898  -0.7495   1.5079   3.4558   7.4788  10.7934  12.3249  15.4846
    17.8515

          k = 0.5303-0.5303 0.1768 (   703 PWs)   bands (ev):

   -11.8623  -1.2269   0.8930   3.5576   8.2133  10.4955  12.5402  15.3863
    17.4761

          k = 0.4419-0.4419 0.0884 (   707 PWs)   bands (ev):

   -11.8155  -1.4156   0.6391   3.7843   8.8836  10.2486  12.5931  15.6059
    17.2432

          k = 0.3536-0.3536 0.0000 (   708 PWs)   bands (ev):

   -11.9829  -1.3471   1.0299   4.0732   8.6218  10.7955  12.0265  16.3654
    17.5573

          k = 0.0000 0.0000-0.5303 (   709 PWs)   bands (ev):

   -11.9371  -0.8968   1.5322   3.1976   6.8180  10.2985  12.6675  15.6912
    18.2246

          k = 0.6187-0.6187 0.0884 (   712 PWs)   bands (ev):

   -11.7897  -1.0309   0.9678   3.2243   6.9792  10.3979  12.8622  15.4002
    18.1281

          k = 0.5303-0.5303 0.0000 (   706 PWs)   bands (ev):

   -11.7394  -0.9880   0.2347   3.4457   7.8372  10.8988  12.9362  14.5453
    17.6722

          k = 0.0000 0.0000 0.7071 (   724 PWs)   bands (ev):

   -11.7576  -1.1356   1.3720   3.0838   6.3329   9.9910  13.1280  15.9839
    18.4064

          k = 0.0000 0.1768-0.3536 (   708 PWs)   bands (ev):

   -12.2204  -0.8669   1.6709   4.0586   7.4194  11.3382  12.5146  15.9302
    18.4003

          k = 0.6187-0.4419 0.2652 (   711 PWs)   bands (ev):

   -11.9476  -1.3435   1.0348   3.9292   8.4670  10.5875  12.3627  15.8772
    17.7614

          k = 0.5303-0.3536 0.1768 (   714 PWs)   bands (ev):

   -11.8276  -1.5249   0.7653   3.8720   9.0011  10.0177  12.8632  15.4883
    17.4662

          k = 0.7071-0.5303 0.1768 (   712 PWs)   bands (ev):

   -11.8728  -1.1987   1.1567   3.4211   7.5245  10.5902  12.5411  15.5447
    18.5626

          k = 0.6187-0.4419 0.0884 (   711 PWs)   bands (ev):

   -11.7532  -1.0640   0.3575   3.3415   8.1286  10.9973  12.7485  14.3253
    18.4047

          k = 0.5303-0.3536-0.0000 (   712 PWs)   bands (ev):

   -11.7852  -1.2117   0.4811   3.4683   8.5943  10.8251  12.3599  14.7888
    18.5208

          k = 0.0000 0.1768 0.7071 (   714 PWs)   bands (ev):

   -11.7498  -0.9699   0.9655   2.7755   7.2276  10.4577  12.9484  14.9890
    18.5809

          k = 0.0000 0.3536 0.7071 (   700 PWs)   bands (ev):

   -11.7419  -0.7461   0.5629   2.4887   8.2827  10.9437  12.5872  13.8897
    19.9127

          k =-0.0884-0.0884-0.0884 (   712 PWs)   bands (ev):

   -12.7845   2.4210   2.5402   2.5402   5.2834  13.3788  14.2095  14.2095
    19.4269

          k =-0.1768-0.1768-0.1768 (   703 PWs)   bands (ev):

   -12.5422   1.3572   2.4629   2.4629   6.0755  11.7294  13.6023  13.6023
    18.9312

          k =-0.2652-0.2652-0.2652 (   715 PWs)   bands (ev):

   -12.2818   0.5298   2.3821   2.3821   6.4532  10.8035  13.0366  13.0366
    18.5531

          k = 0.3536 0.3536 0.3536 (   718 PWs)   bands (ev):

   -12.1679   0.2167   2.3478   2.3478   6.5221  10.5566  12.8159  12.8159
    18.4818

          k = 0.0884 0.0884-0.2652 (   702 PWs)   bands (ev):

   -12.4728  -0.2610   2.1533   4.2401   6.4340  11.9139  13.7013  15.4473
    18.6471

          k =-0.0884-0.0884-0.2652 (   702 PWs)   bands (ev):

   -12.5361   0.9688   2.2450   2.8718   6.3849  11.9082  13.2669  14.1368
    18.6624

          k = 0.1768 0.1768-0.3536 (   703 PWs)   bands (ev):

   -12.1371  -1.3695   1.9911   4.0814   7.4731  10.7655  13.3912  15.8803
    18.8042

          k =-0.1768-0.1768-0.3536 (   703 PWs)   bands (ev):

   -12.2795   0.6502   2.1074   2.1659   7.0249  10.7437  12.6942  13.6046
    19.3941

          k =-0.4419-0.4419 0.2652 (   708 PWs)   bands (ev):

   -11.9272  -1.8726   1.9749   3.7315   8.2102   9.9125  13.5575  15.7132
    18.6024

          k = 0.4419 0.4419 0.2652 (   708 PWs)   bands (ev):

   -12.1128   0.4385   1.6378   2.1866   7.3125  10.1610  12.5449  13.2627
    19.5324

          k =-0.3536-0.3536 0.1768 (   714 PWs)   bands (ev):

   -11.9999  -1.5796   2.1130   3.4174   8.3217   9.8963  13.3597  15.5295
    18.9674

          k = 0.3536 0.3536 0.1768 (   714 PWs)   bands (ev):

   -12.1502   0.4749   1.6183   2.2978   7.3148  10.2671  12.5603  13.3039
    19.6467

          k =-0.2652-0.2652 0.0884 (   715 PWs)   bands (ev):

   -12.2970  -0.5675   2.3355   3.2571   7.3907  10.9938  13.1408  15.1911
    18.2027

          k = 0.2652 0.2652 0.0884 (   715 PWs)   bands (ev):

   -12.3648   0.6512   2.1761   2.4347   6.9211  11.1029  12.7947  13.7838
    19.8262

          k =-0.1768-0.1768 0.0000 (   694 PWs)   bands (ev):

   -12.6153   0.8901   2.5231   3.1313   6.1000  12.3652  13.5919  14.5057
    18.7524

          k = 0.0884 0.0884-0.4419 (   706 PWs)   bands (ev):

   -12.0674  -1.0784   1.7312   3.6550   7.2496  10.6610  12.6586  15.8207
    18.7571

          k =-0.0884-0.0884-0.4419 (   706 PWs)   bands (ev):

   -12.1415  -0.0767   1.8083   2.5263   7.3281  10.6333  12.2932  14.6984
    18.3317

          k =-0.5303-0.5303 0.1768 (   703 PWs)   bands (ev):

   -11.8604  -1.4962   1.7167   3.1097   7.7510  10.1685  12.8903  15.8276
    19.3818

          k = 0.5303 0.5303 0.1768 (   703 PWs)   bands (ev):

   -11.9735   0.1158   1.4595   1.8259   7.7563  10.0764  12.2875  14.3561
    19.2289

          k =-0.4419-0.4419 0.0884 (   707 PWs)   bands (ev):

   -11.8711  -1.2349   1.8983   2.4262   8.4987   9.7058  12.6672  15.3054
    20.2410

          k = 0.4419 0.4419 0.0884 (   707 PWs)   bands (ev):

   -11.9513   0.0892   1.1546   1.9810   8.3157   9.6747  12.2921  14.2423
    20.5194

          k =-0.3536-0.3536 0.0000 (   708 PWs)   bands (ev):

   -12.0891  -0.3845   2.0572   2.1933   8.3037  10.0320  12.3119  14.5152
    19.8498

          k =-0.6187-0.6187 0.0884 (   712 PWs)   bands (ev):

   -11.7888  -1.2085   1.4715   2.9641   6.7993  10.1678  13.0004  15.9401
    18.4670

          k = 0.6187 0.6187 0.0884 (   712 PWs)   bands (ev):

   -11.8234  -0.7893   1.5001   2.4590   6.8993  10.2074  12.7404  15.4947
    18.2816

          k =-0.5303-0.5303 0.0000 (   706 PWs)   bands (ev):

   -11.7966  -0.8421   1.6483   1.9801   7.5404  10.1843  12.6940  15.3223
    18.8507

          k =-0.1768-0.0000-0.3536 (   708 PWs)   bands (ev):

   -12.2900  -0.0001   2.0512   2.7935   7.3775  11.0398  12.4781  14.6238
    18.3673

          k =-0.4419-0.6187 0.2652 (   711 PWs)   bands (ev):

   -11.9467  -1.4692   1.3808   3.7444   8.2404  10.4312  12.5878  15.7754
    19.0697

          k = 0.4419 0.6187 0.2652 (   711 PWs)   bands (ev):

   -12.0773   0.1880   1.6232   1.9796   8.0218  10.0842  12.2096  14.0928
    19.7385

          k =-0.2652-0.4419 0.6187 (   711 PWs)   bands (ev):

   -12.0016  -0.9871   1.6995   2.8948   8.5044  10.0321  12.4528  15.1190
    18.4617

          k =-0.3536-0.5303 0.1768 (   714 PWs)   bands (ev):

   -11.8500  -1.5381   1.4093   3.2526   8.8865   9.6432  12.8743  15.3405
    18.7852

          k = 0.3536 0.5303 0.1768 (   714 PWs)   bands (ev):

   -11.9857   0.5854   0.9070   1.8748   8.2975   9.6284  12.2635  13.8962
    20.7332

          k = 0.5303 0.7071 0.1768 (   712 PWs)   bands (ev):

   -11.9292  -0.5668   1.3418   2.5457   7.6607  10.4980  12.1713  14.9619
    18.4383

          k =-0.4419-0.6187 0.0884 (   711 PWs)   bands (ev):

   -11.7762  -1.1524   1.1562   2.6648   8.0012  10.4003  12.7382  14.9161
    19.5865

          k = 0.4419 0.6187 0.0884 (   711 PWs)   bands (ev):

   -11.8349  -0.3609   1.3210   1.7337   8.0678  10.2531  12.2710  14.5842
    19.4728

          k =-0.0884-0.4419 0.6187 (   711 PWs)   bands (ev):

   -11.7772  -0.9383   0.6469   2.9006   8.2149  10.7387  12.4640  14.4858
    18.6364

          k =-0.3536-0.5303-0.0000 (   712 PWs)   bands (ev):

   -11.8659  -0.5917   1.4476   1.9464   8.6019   9.9170  12.2310  14.6429
    20.1640

     the Fermi energy is     9.3033 ev

!    total energy              =     -88.29763645 Ry
     Harris-Foulkes estimate   =     -88.29763645 Ry
     estimated scf accuracy    <          5.4E-10 Ry

[...]

   -11.3704  -0.7261   2.0274   2.8686   6.3304  10.6452  12.9138  15.4162
    17.8274

          k = 0.6187 0.6187 0.0884 (   712 PWs)   bands (ev):

   -11.3985  -0.3161   2.0520   2.3646   6.4489  10.6617  12.7242  15.1341
    17.6493

          k =-0.5303-0.5303 0.0000 (   706 PWs)   bands (ev):

   -11.3680  -0.3585   1.8093   2.2228   7.1851  10.5068  12.7699  14.8113
    18.3207

          k =-0.1768-0.0000-0.3536 (   708 PWs)   bands (ev):

   -11.8764   0.2077   2.6056   2.9858   7.4157  11.0278  12.5095  14.3880
    18.0021

          k =-0.4419-0.6187 0.2652 (   711 PWs)   bands (ev):

   -11.5383  -1.1042   1.9270   3.7601   8.0731  10.5363  12.4842  15.0295
    19.6064

          k = 0.4419 0.6187 0.2652 (   711 PWs)   bands (ev):

   -11.6440   0.2817   1.8579   2.5513   8.0978   9.9744  12.3266  13.8259
    19.2520

          k =-0.2652-0.4419 0.6187 (   711 PWs)   bands (ev):

   -11.5826  -0.6840   2.2483   2.9717   8.3576  10.0582  12.5855  14.5117
    18.3357

          k =-0.3536-0.5303 0.1768 (   714 PWs)   bands (ev):

   -11.4329  -1.1873   1.9520   3.2720   8.6251   9.7434  12.9077  14.6315
    18.8518

          k = 0.3536 0.5303 0.1768 (   714 PWs)   bands (ev):

   -11.5432   0.4487   1.3435   2.4492   8.4379   9.4558  12.3877  13.6256
    20.2222

          k = 0.5303 0.7071 0.1768 (   712 PWs)   bands (ev):

   -11.5057  -0.1876   1.8446   2.5724   7.3042  10.9170  12.1376  14.6185
    17.9341

          k =-0.4419-0.6187 0.0884 (   711 PWs)   bands (ev):

   -11.3549  -0.7001   1.6597   2.5707   7.6450  10.7588  12.7305  14.3784
    19.1811

          k = 0.4419 0.6187 0.0884 (   711 PWs)   bands (ev):

   -11.4025   0.1137   1.5386   1.8930   7.7391  10.5781  12.3896  14.1612
    19.0452

          k =-0.0884-0.4419 0.6187 (   711 PWs)   bands (ev):

   -11.3557  -0.5003   1.0954   2.8823   7.7834  11.1659  12.4446  14.0882
    18.3344

          k =-0.3536-0.5303-0.0000 (   712 PWs)   bands (ev):

   -11.4356  -0.1995   1.7194   2.1447   8.3040  10.1410  12.3974  14.1420
    20.0982

     the Fermi energy is     9.0692 ev

!    total energy              =     -88.30364935 Ry
     Harris-Foulkes estimate   =     -88.30364935 Ry
     estimated scf accuracy    <          1.1E-10 Ry

     total all-electron energy =       -88.303649 Ry

     The total energy is the sum of the following terms:

     one-electron contribution =      -7.64907998 Ry
     hartree contribution      =      10.35419888 Ry
     xc contribution           =      -9.61290231 Ry
     ewald contribution        =     -32.41122955 Ry
     one-center paw contrib.   =     -48.98463639 Ry
     smearing contrib. (-TS)   =      -0.00000000 Ry

     convergence has been achieved in   6 iterations

     negative rho (up, down):  6.611E-05 0.000E+00

     Forces acting on atoms (cartesian axes, Ry/au):

     atom    1 type  1   force =    -0.00019964   -0.00019964   -0.00019964
     atom    2 type  2   force =     0.00019964    0.00019964    0.00019964

     Total force =     0.000489     Total SCF correction =     0.000004

     number of scf cycles    =   8
     number of bfgs steps    =   7

     energy   old            =     -88.3035174253 Ry
     energy   new            =     -88.3036493511 Ry

     CASE: energy  _new < energy  _old

     new trust radius        =       0.0029042996 bohr
     new conv_thr            =            1.0E-10 Ry


ATOMIC_POSITIONS (alat)
O       -0.039789860  -0.039789860  -0.039789860
Si       0.539789860   0.539789860   0.539789860



     Writing output data file relax.save/
     NEW-OLD atomic charge density approx. for the potential

     negative rho (up, down):  6.574E-05 0.000E+00

     total cpu time spent up to now is       15.6 secs

     Self-consistent Calculation

     iteration #  1     ecut=    40.00 Ry     beta= 0.70
     Davidson diagonalization with overlap
     ethr =  1.00E-06,  avg # of iterations =  2.0

     Threshold (ethr) on eigenvalues was too large:
     Diagonalizing with lowered threshold

     Davidson diagonalization with overlap
     ethr =  5.68E-09,  avg # of iterations =  2.0

     negative rho (up, down):  6.569E-05 0.000E+00

     total cpu time spent up to now is       16.0 secs

     total energy              =     -88.30365026 Ry
     Harris-Foulkes estimate   =     -88.30342150 Ry
     estimated scf accuracy    <       0.00000058 Ry

     iteration #  2     ecut=    40.00 Ry     beta= 0.70
     Davidson diagonalization with overlap
     ethr =  5.79E-09,  avg # of iterations =  2.0

     negative rho (up, down):  6.568E-05 0.000E+00

     total cpu time spent up to now is       16.2 secs

     total energy              =     -88.30365034 Ry
     Harris-Foulkes estimate   =     -88.30365036 Ry
     estimated scf accuracy    <       0.00000005 Ry

     iteration #  3     ecut=    40.00 Ry     beta= 0.70
     Davidson diagonalization with overlap
     ethr =  5.15E-10,  avg # of iterations =  2.0

     negative rho (up, down):  6.568E-05 0.000E+00

     total cpu time spent up to now is       16.4 secs

     total energy              =     -88.30365034 Ry
     Harris-Foulkes estimate   =     -88.30365037 Ry
     estimated scf accuracy    <       0.00000007 Ry

     iteration #  4     ecut=    40.00 Ry     beta= 0.70
     Davidson diagonalization with overlap
     ethr =  5.15E-10,  avg # of iterations =  1.9

     negative rho (up, down):  6.568E-05 0.000E+00

     total cpu time spent up to now is       16.6 secs

     total energy              =     -88.30365036 Ry
     Harris-Foulkes estimate   =     -88.30365036 Ry
     estimated scf accuracy    <          1.1E-09 Ry

     iteration #  5     ecut=    40.00 Ry     beta= 0.70
     Davidson diagonalization with overlap
     ethr =  1.09E-11,  avg # of iterations =  2.0

     negative rho (up, down):  6.568E-05 0.000E+00

     total cpu time spent up to now is       16.8 secs

     End of self-consistent calculation

          k = 0.0000 0.0000 0.0000 (   725 PWs)   bands (ev):

   -12.4921   2.9073   3.2047   3.2047   4.7595  14.2237  14.8148  14.8148
    18.9908

          k =-0.0884 0.0884-0.0884 (   712 PWs)   bands (ev):

   -12.3695   1.3751   3.1325   4.2572   5.1954  13.2809  14.7665  15.0161
    18.1853

          k =-0.1768 0.1768-0.1768 (   703 PWs)   bands (ev):

   -12.0523  -0.1711   2.9695   4.3401   6.5039  11.7353  14.5010  15.0817
    17.1742

          k =-0.2652 0.2652-0.2652 (   715 PWs)   bands (ev):

   -11.6979  -1.3151   2.8108   4.2705   7.5574  10.4110  14.5008  14.6746
    16.6059

          k = 0.3536-0.3536 0.3536 (   718 PWs)   bands (ev):

   -11.5373  -1.7464   2.7459   4.2359   8.0341   9.8022  14.4597  14.5525
    16.5343

          k = 0.0000 0.0000-0.1768 (   701 PWs)   bands (ev):

   -12.3356   1.4075   3.0014   3.9440   5.5690  13.1933  14.1960  14.8079
    17.8301

          k =-0.0884 0.0884-0.2652 (   702 PWs)   bands (ev):

   -12.0900   0.3069   2.7904   3.9426   6.5885  12.0955  13.2783  15.1107
    17.4454

          k =-0.1768 0.1768-0.3536 (   703 PWs)   bands (ev):

   -11.7474  -0.8249   2.4842   3.9435   7.7064  10.6732  13.1510  15.2133
    17.1061

          k = 0.4419-0.4419 0.2652 (   708 PWs)   bands (ev):

   -11.5106  -1.4857   2.2423   4.0118   8.6603   9.5171  13.3883  15.0802
    17.1750

          k = 0.3536-0.3536 0.1768 (   714 PWs)   bands (ev):

   -11.5545  -1.4254   2.2002   4.1721   8.4058   9.9067  13.2332  15.1020
    17.6288

          k = 0.2652-0.2652 0.0884 (   715 PWs)   bands (ev):

   -11.8445  -0.7003   2.4131   4.3664   7.3596  11.3516  12.9658  15.4176
    17.8878

          k = 0.1768-0.1768 0.0000 (   694 PWs)   bands (ev):

   -12.1772   0.3845   2.8154   4.5008   6.0811  12.6506  13.6628  15.5299
    17.8905

          k = 0.0000 0.0000-0.3536 (   713 PWs)   bands (ev):

   -11.9401   0.1778   2.5250   3.5924   6.8433  11.7029  12.4587  14.9916
    17.4290

          k =-0.0884 0.0884-0.4419 (   706 PWs)   bands (ev):

   -11.6743  -0.3946   2.0724   3.5094   7.2073  11.2449  12.0804  15.1643
    17.3349

          k = 0.5303-0.5303 0.1768 (   703 PWs)   bands (ev):

   -11.4416  -0.8602   1.4231   3.6061   7.7763  10.8310  12.4761  14.9737
    17.1789

          k = 0.4419-0.4419 0.0884 (   707 PWs)   bands (ev):

   -11.3965  -1.0495   1.1526   3.8345   8.4568  10.4548  12.5164  14.9887
    17.5788

          k = 0.3536-0.3536 0.0000 (   708 PWs)   bands (ev):

   -11.5714  -0.9981   1.5689   4.1335   8.4768  10.7807  11.9847  15.2791
    18.5761

          k = 0.0000 0.0000-0.5303 (   709 PWs)   bands (ev):

   -11.5163  -0.4595   2.0925   3.1928   6.3671  10.8182  12.4973  15.3513
    17.5690

          k = 0.6187-0.6187 0.0884 (   712 PWs)   bands (ev):

   -11.3655  -0.5499   1.4389   3.2375   6.4409  10.9615  12.7366  15.0356
    17.5180

          k = 0.5303-0.5303 0.0000 (   706 PWs)   bands (ev):

   -11.3160  -0.5116   0.6456   3.4814   7.3128  11.4198  12.7058  14.3560
    17.3133

          k = 0.0000 0.0000 0.7071 (   724 PWs)   bands (ev):

   -11.3318  -0.6282   1.9225   3.0393   5.7444  10.5133  13.0630  15.5390
    17.6802

          k = 0.0000 0.1768-0.3536 (   708 PWs)   bands (ev):

   -11.8152  -0.5209   2.2517   4.1083   7.3375  11.7674  12.0850  15.3649
    18.1041

          k = 0.6187-0.4419 0.2652 (   711 PWs)   bands (ev):

   -11.5334  -0.9967   1.5964   3.9661   8.2087  10.7527  12.2489  15.1621
    17.9603

          k = 0.5303-0.3536 0.1768 (   714 PWs)   bands (ev):

   -11.4092  -1.1817   1.3260   3.8984   8.5985  10.2115  12.7318  14.8862
    17.9281

          k = 0.7071-0.5303 0.1768 (   712 PWs)   bands (ev):

   -11.4545  -0.7664   1.6849   3.3937   7.1276  11.1399  12.2731  15.0495
    18.0880

          k = 0.6187-0.4419 0.0884 (   711 PWs)   bands (ev):

   -11.3306  -0.6179   0.8306   3.3059   7.6835  11.5981  12.3705  14.0599
    18.2588

          k = 0.5303-0.3536-0.0000 (   712 PWs)   bands (ev):

   -11.3645  -0.8005   0.9697   3.4567   8.1996  11.1996  12.1451  14.4035
    18.8068

          k = 0.0000 0.1768 0.7071 (   714 PWs)   bands (ev):

   -11.3219  -0.4565   1.4267   2.7022   6.7552  10.9822  12.9044  14.5442
    18.0218

          k = 0.0000 0.3536 0.7071 (   700 PWs)   bands (ev):

   -11.3119  -0.2272   1.0044   2.3597   7.8985  11.4509  12.5940  13.3866
    19.9700

          k =-0.0884-0.0884-0.0884 (   712 PWs)   bands (ev):

   -12.3882   2.2064   3.1712   3.1712   5.4058  13.1895  14.4375  14.4375
    19.4430

          k =-0.1768-0.1768-0.1768 (   703 PWs)   bands (ev):

   -12.1240   1.1028   3.0949   3.0949   6.2684  11.5978  13.6308  13.6308
    18.7078

          k =-0.2652-0.2652-0.2652 (   715 PWs)   bands (ev):

   -11.8373   0.2264   3.0148   3.0148   6.7625  10.5894  12.9430  12.9430
    18.3797

          k = 0.3536 0.3536 0.3536 (   718 PWs)   bands (ev):

   -11.7108  -0.1087   2.9804   2.9804   6.8900  10.2888  12.6845  12.6845
    18.3443

          k = 0.0884 0.0884-0.2652 (   702 PWs)   bands (ev):

   -12.0751   0.0653   2.7689   4.2987   6.4599  12.1618  13.4144  15.2093
    18.0562

          k =-0.0884-0.0884-0.2652 (   702 PWs)   bands (ev):

   -12.1255   1.0373   2.8496   3.1913   6.5201  11.8691  13.2166  14.2182
    18.1186

          k = 0.1768 0.1768-0.3536 (   703 PWs)   bands (ev):

   -11.7300  -1.0306   2.6167   4.1088   7.4452  10.7967  13.2541  15.0479
    18.6390

          k =-0.1768-0.1768-0.3536 (   703 PWs)   bands (ev):

   -11.8444   0.4835   2.6173   2.7706   7.2459  10.5597  12.6792  13.5559
    18.7861

          k =-0.4419-0.4419 0.2652 (   708 PWs)   bands (ev):

   -11.5099  -1.5496   2.6158   3.7503   8.2718   9.7151  13.5155  14.6509
    18.5406

          k = 0.4419 0.4419 0.2652 (   708 PWs)   bands (ev):

   -11.6601   0.1250   2.2517   2.8035   7.6513   9.8481  12.5486  13.1126
    19.1837

          k =-0.3536-0.3536 0.1768 (   714 PWs)   bands (ev):

   -11.5798  -1.2848   2.7679   3.4566   8.4302   9.6486  13.4654  14.4725
    18.4290

          k = 0.3536 0.3536 0.1768 (   714 PWs)   bands (ev):

   -11.7013   0.1915   2.1919   2.9324   7.6518   9.9576  12.6038  13.0992
    19.3766

          k =-0.2652-0.2652 0.0884 (   715 PWs)   bands (ev):

   -11.8834  -0.3166   2.9949   3.3497   7.4451  10.9276  13.2623  14.5061
    18.6243

          k = 0.2652 0.2652 0.0884 (   715 PWs)   bands (ev):

   -11.9378   0.5869   2.5599   3.0833   7.1293  10.9317  12.8849  13.5921
    19.5012

          k =-0.1768-0.1768 0.0000 (   694 PWs)   bands (ev):

   -12.2115   1.0470   3.1729   3.3443   6.2164  12.3369  13.6727  14.4498
    18.4542

          k = 0.0884 0.0884-0.4419 (   706 PWs)   bands (ev):

   -11.6564  -0.6798   2.3163   3.6418   7.0103  11.0563  12.3968  15.3298
    18.1446

          k =-0.0884-0.0884-0.4419 (   706 PWs)   bands (ev):

   -11.7159   0.1951   2.3834   2.6320   7.1778  10.8575  12.2257  14.5743
    17.6999

          k =-0.5303-0.5303 0.1768 (   703 PWs)   bands (ev):

   -11.4401  -1.0882   2.3153   3.0366   7.4810  10.3969  12.8415  15.0599
    18.9509

          k = 0.5303 0.5303 0.1768 (   703 PWs)   bands (ev):

   -11.5314   0.3527   1.5451   2.4107   7.5971  10.2085  12.3790  14.1280
    18.5714

          k =-0.4419-0.4419 0.0884 (   707 PWs)   bands (ev):

   -11.4413  -0.8706   2.3617   2.5194   8.3044   9.7751  12.8017  14.5395
    19.9550

          k = 0.4419 0.4419 0.0884 (   707 PWs)   bands (ev):

   -11.5062   0.3398   1.1897   2.5922   8.2706   9.6609  12.4419  13.8790
    19.9601

          k =-0.3536-0.3536 0.0000 (   708 PWs)   bands (ev):

   -11.6568  -0.1576   2.1237   2.8359   8.4490   9.8040  12.4925  13.9967
    20.1292

          k =-0.6187-0.6187 0.0884 (   712 PWs)   bands (ev):

   -11.3647  -0.7192   2.0350   2.8664   6.3243  10.6525  12.9130  15.4094
    17.8149

          k = 0.6187 0.6187 0.0884 (   712 PWs)   bands (ev):

   -11.3927  -0.3097   2.0596   2.3629   6.4428  10.6688  12.7243  15.1293
    17.6378

          k =-0.5303-0.5303 0.0000 (   706 PWs)   bands (ev):

   -11.3621  -0.3517   1.8061   2.2308   7.1804  10.5119  12.7709  14.8045
    18.3110

          k =-0.1768-0.0000-0.3536 (   708 PWs)   bands (ev):

   -11.8708   0.2097   2.6125   2.9896   7.4160  11.0277  12.5106  14.3844
    17.9959

          k =-0.4419-0.6187 0.2652 (   711 PWs)   bands (ev):

   -11.5327  -1.0991   1.9345   3.7598   8.0713  10.5368  12.4835  15.0186
    19.6066

          k = 0.4419 0.6187 0.2652 (   711 PWs)   bands (ev):

   -11.6380   0.2811   1.8622   2.5594   8.0984   9.9740  12.3284  13.8221
    19.2447

          k =-0.2652-0.4419 0.6187 (   711 PWs)   bands (ev):

   -11.5768  -0.6801   2.2554   2.9731   8.3555  10.0588  12.5870  14.5036
    18.3326

          k =-0.3536-0.5303 0.1768 (   714 PWs)   bands (ev):

   -11.4272  -1.1825   1.9593   3.2720   8.6219   9.7447  12.9073  14.6219
    18.8532

          k = 0.3536 0.5303 0.1768 (   714 PWs)   bands (ev):

   -11.5371   0.4445   1.3511   2.4571   8.4390   9.4551  12.3895  13.6219
    20.2154

          k = 0.5303 0.7071 0.1768 (   712 PWs)   bands (ev):

   -11.4999  -0.1828   1.8513   2.5729   7.2994  10.9228  12.1378  14.6139
    17.9250

          k =-0.4419-0.6187 0.0884 (   711 PWs)   bands (ev):

   -11.3492  -0.6936   1.6664   2.5688   7.6408  10.7635  12.7304  14.3712
    19.1726

          k = 0.4419 0.6187 0.0884 (   711 PWs)   bands (ev):

   -11.3966   0.1199   1.5371   1.8993   7.7350  10.5829  12.3913  14.1556
    19.0370

          k =-0.0884-0.4419 0.6187 (   711 PWs)   bands (ev):

   -11.3500  -0.4943   1.1013   2.8816   7.7784  11.1702  12.4452  14.0830
    18.3286

          k =-0.3536-0.5303-0.0000 (   712 PWs)   bands (ev):

   -11.4297  -0.1946   1.7197   2.1506   8.3004  10.1441  12.3995  14.1355
    20.0942

     the Fermi energy is     9.0682 ev

!    total energy              =     -88.30365036 Ry
     Harris-Foulkes estimate   =     -88.30365036 Ry
     estimated scf accuracy    <          6.5E-12 Ry

     total all-electron energy =       -88.303650 Ry

     The total energy is the sum of the following terms:

     one-electron contribution =      -7.63985523 Ry
     hartree contribution      =      10.35040804 Ry
     xc contribution           =      -9.61229299 Ry
     ewald contribution        =     -32.41722098 Ry
     one-center paw contrib.   =     -48.98468918 Ry
     smearing contrib. (-TS)   =      -0.00000000 Ry

     convergence has been achieved in   5 iterations

     negative rho (up, down):  6.568E-05 0.000E+00

     Forces acting on atoms (cartesian axes, Ry/au):

     atom    1 type  1   force =    -0.00000149   -0.00000149   -0.00000149
     atom    2 type  2   force =     0.00000149    0.00000149    0.00000149

     Total force =     0.000004     Total SCF correction =     0.000002
     SCF correction compared to forces is large: reduce conv_thr to get better values

     bfgs converged in   9 scf cycles and   8 bfgs steps
     (criteria: energy <  1.0E-04 Ry, force <  1.0E-03 Ry/Bohr)

     End of BFGS Geometry Optimization

     Final energy   =     -88.3036503573 Ry
Begin final coordinates

ATOMIC_POSITIONS (alat)
O       -0.039789860  -0.039789860  -0.039789860
Si       0.539789860   0.539789860   0.539789860
End final coordinates



     Writing output data file relax.save/
 
     init_run     :      0.33s CPU      0.35s WALL (       1 calls)
     electrons    :     13.23s CPU     14.42s WALL (       9 calls)
     update_pot   :      0.36s CPU      0.36s WALL (       8 calls)
     forces       :      0.16s CPU      0.17s WALL (       9 calls)

     Called by init_run:
     wfcinit      :      0.13s CPU      0.14s WALL (       1 calls)
     potinit      :      0.06s CPU      0.06s WALL (       1 calls)
     hinit0       :      0.14s CPU      0.14s WALL (       1 calls)

     Called by electrons:
     c_bands      :      9.42s CPU     10.43s WALL (      58 calls)
     sum_band     :      1.61s CPU      1.76s WALL (      58 calls)
     v_of_rho     :      0.11s CPU      0.12s WALL (      66 calls)
     newd         :      0.07s CPU      0.07s WALL (      66 calls)
     PAW_pot      :      2.55s CPU      2.58s WALL (      74 calls)
     mix_rho      :      0.02s CPU      0.02s WALL (      58 calls)

     Called by c_bands:
     init_us_2    :      0.25s CPU      0.27s WALL (    8710 calls)
     cegterg      :      8.97s CPU      9.93s WALL (    3770 calls)

     Called by sum_band:
     sum_band:bec :      0.01s CPU      0.01s WALL (    4290 calls)
     addusdens    :      0.06s CPU      0.07s WALL (      58 calls)

     Called by *egterg:
     h_psi        :      6.84s CPU      7.58s WALL (   12723 calls)
     s_psi        :      0.11s CPU      0.13s WALL (   12723 calls)
     g_psi        :      0.03s CPU      0.03s WALL (    8888 calls)
     cdiaghg      :      1.28s CPU      1.41s WALL (   12073 calls)

     Called by h_psi:
     h_psi:pot    :      6.80s CPU      7.54s WALL (   12723 calls)
     h_psi:calbec :      0.24s CPU      0.26s WALL (   12723 calls)
     vloc_psi     :      6.39s CPU      7.09s WALL (   12723 calls)
     add_vuspsi   :      0.12s CPU      0.13s WALL (   12723 calls)

     General routines
     calbec       :      0.31s CPU      0.34s WALL (   19353 calls)
     fft          :      0.08s CPU      0.08s WALL (     957 calls)
     ffts         :      0.01s CPU      0.01s WALL (     124 calls)
     fftw         :      6.92s CPU      7.66s WALL (  215160 calls)
     interpolate  :      0.01s CPU      0.01s WALL (      66 calls)
 
     Parallel routines
     fft_scatt_xy :      0.97s CPU      1.07s WALL (  216241 calls)
     fft_scatt_yz :      2.53s CPU      2.80s WALL (  216241 calls)
 
     PWSCF        :    15.55s CPU        16.85s WALL

 
   This run was terminated on:  16:27:33  20May2019            

=------------------------------------------------------------------------------=
   JOB DONE.
=------------------------------------------------------------------------------=
