===== VARIABLES =====
EXE_PATH = /scr/szymansk/2019-3/qe-bin/bin/pw.x
tpp = 4
Parallel keywords = -nimage 1
MPIRUN_EXE = orterun
PATH = /scr/szymansk/2019-3/mmshare-v4.7/lib/Linux-x86_64/openmpi/bin:/scr/szymansk/2019-3/internal/bin:/scr/szymansk/2019-3/mmshare-v4.7/bin/Linux-x86_64:/scr/szymansk/dakota/bin:/scr/szymansk/atompaw-4.1.0.5/src/:/usr/lib64/qt-3.3/bin:/usr/local/bin:/usr/local/sbin:/usr/bin:/usr/sbin:/bin:/sbin
LD_LIBRARY_PATH = /scr/szymansk/2019-3/mmshare-v4.7/lib/Linux-x86_64/openmpi/lib:/scr/szymansk/2019-3/internal/lib/ssl:/scr/szymansk/2019-3/internal/lib:/scr/szymansk/2019-3/mmshare-v4.7/lib/Linux-x86_64:/scr/szymansk/2019-3/internal/lib/python3.6/site-packages:/scr/szymansk/dakota/bin:/software/lib/Linux-x86_64/ifort_2017.1.132/mkl/lib/intel64
===== END VARIABLES =====
Invoking: exe_cmd () 
{ 
    "$MPIRUN_EXE" -np $tpp "$EXE_PATH" -in $input_file "${P_KEYWORDS[@]}"
}

     Program PWSCF v.6.3MaX starts on 20May2019 at 17: 5:14 

     This program is part of the open-source Quantum ESPRESSO suite
     for quantum simulation of materials; please cite
         "P. Giannozzi et al., J. Phys.:Condens. Matter 21 395502 (2009);
         "P. Giannozzi et al., J. Phys.:Condens. Matter 29 465901 (2017);
          URL http://www.quantum-espresso.org", 
     in publications or presentations arising from this work. More details at
     http://www.quantum-espresso.org/quote

     Parallel version (MPI), running on     4 processors

     MPI processes distributed on     1 nodes
     R & G space division:  proc/nbgrp/npool/nimage =       4
     Reading input from SiO.RS.relax.in

     Current dimensions of program PWSCF are:
     Max number of different atomic species (ntypx) = 10
     Max number of k-points (npk) =  40000
     Max angular momentum in pseudopotentials (lmaxx) =  3
               file O.GGA-PBE-paw.UPF: wavefunction(s)  Xn Xn Xn Xn renormalized
               file Si.GGA-PBE-paw.UPF: wavefunction(s)  Xn Xn Xn renormalized

     Subspace diagonalization in iterative solution of the eigenvalue problem:
     a serial algorithm will be used

 
     Parallelization info
     --------------------
     sticks:   dense  smooth     PW     G-vecs:    dense   smooth      PW
     Min         170     139     42                 2983     2152     367
     Max         173     140     43                 2984     2153     368
     Sum         685     559    169                11935     8609    1471
 


     bravais-lattice index     =            2
     lattice parameter (alat)  =      10.0000  a.u.
     unit-cell volume          =     250.0000 (a.u.)^3
     number of atoms/cell      =            2
     number of atomic types    =            2
     number of electrons       =        10.00
     number of Kohn-Sham states=            9
     kinetic-energy cutoff     =      40.0000  Ry
     charge density cutoff     =     200.0000  Ry
     convergence threshold     =      1.0E-08
     mixing beta               =       0.7000
     number of iterations used =            8  plain     mixing
     Exchange-correlation      = SLA PW PBX PBC ( 1  4  3  4 0 0)
     nstep                     =           50


     celldm(1)=  10.000000  celldm(2)=   0.000000  celldm(3)=   0.000000
     celldm(4)=   0.000000  celldm(5)=   0.000000  celldm(6)=   0.000000

     crystal axes: (cart. coord. in units of alat)
               a(1) = (  -0.500000   0.000000   0.500000 )  
               a(2) = (   0.000000   0.500000   0.500000 )  
               a(3) = (  -0.500000   0.500000   0.000000 )  

     reciprocal axes: (cart. coord. in units 2 pi/alat)
               b(1) = ( -1.000000 -1.000000  1.000000 )  
               b(2) = (  1.000000  1.000000  1.000000 )  
               b(3) = ( -1.000000  1.000000 -1.000000 )  


     PseudoPot. # 1 for O  read from file:
     ./O.GGA-PBE-paw.UPF
     MD5 check sum: 7818fb177f83e969bd9649bd55229eb7
     Pseudo is Projector augmented-wave + core cor, Zval =  6.0
     Generated using ATOMPAW code
     Shape of augmentation charge: SINC**2
     Using radial grid of 2342 points,  4 beta functions with: 
                l(1) =   0
                l(2) =   0
                l(3) =   1
                l(4) =   1
     Q(r) pseudized with 0 coefficients 


     PseudoPot. # 2 for Si read from file:
     ./Si.GGA-PBE-paw.UPF
     MD5 check sum: 971737f46324357c807e9d55c2cc26bc
     Pseudo is Projector augmented-wave + core cor, Zval =  4.0
     Generated using ATOMPAW code
     Shape of augmentation charge: SINC**2
     Using radial grid of 2342 points,  4 beta functions with: 
                l(1) =   0
                l(2) =   0
                l(3) =   1
                l(4) =   1
     Q(r) pseudized with 0 coefficients 


     atomic species   valence    mass     pseudopotential
        O              6.00    15.99900     O ( 1.00)
        Si             4.00    28.08550     Si( 1.00)

     48 Sym. Ops., with inversion, found



   Cartesian axes

     site n.     atom                  positions (alat units)
         1           O   tau(   1) = (   0.0000000   0.0000000   0.0000000  )
         2           Si  tau(   2) = (   0.5000000   0.5000000   0.5000000  )

     number of k points=    29  Fermi-Dirac smearing, width (Ry)=  0.0020
                       cart. coord. in units 2pi/alat
        k(    1) = (   0.0000000   0.0000000   0.0000000), wk =   0.0039062
        k(    2) = (  -0.1250000   0.1250000  -0.1250000), wk =   0.0312500
        k(    3) = (  -0.2500000   0.2500000  -0.2500000), wk =   0.0312500
        k(    4) = (  -0.3750000   0.3750000  -0.3750000), wk =   0.0312500
        k(    5) = (   0.5000000  -0.5000000   0.5000000), wk =   0.0156250
        k(    6) = (   0.0000000   0.2500000   0.0000000), wk =   0.0234375
        k(    7) = (  -0.1250000   0.3750000  -0.1250000), wk =   0.0937500
        k(    8) = (  -0.2500000   0.5000000  -0.2500000), wk =   0.0937500
        k(    9) = (   0.6250000  -0.3750000   0.6250000), wk =   0.0937500
        k(   10) = (   0.5000000  -0.2500000   0.5000000), wk =   0.0937500
        k(   11) = (   0.3750000  -0.1250000   0.3750000), wk =   0.0937500
        k(   12) = (   0.2500000   0.0000000   0.2500000), wk =   0.0468750
        k(   13) = (   0.0000000   0.5000000   0.0000000), wk =   0.0234375
        k(   14) = (  -0.1250000   0.6250000  -0.1250000), wk =   0.0937500
        k(   15) = (   0.7500000  -0.2500000   0.7500000), wk =   0.0937500
        k(   16) = (   0.6250000  -0.1250000   0.6250000), wk =   0.0937500
        k(   17) = (   0.5000000   0.0000000   0.5000000), wk =   0.0468750
        k(   18) = (   0.0000000   0.7500000   0.0000000), wk =   0.0234375
        k(   19) = (   0.8750000  -0.1250000   0.8750000), wk =   0.0937500
        k(   20) = (   0.7500000   0.0000000   0.7500000), wk =   0.0468750
        k(   21) = (   0.0000000  -1.0000000   0.0000000), wk =   0.0117188
        k(   22) = (  -0.2500000   0.5000000   0.0000000), wk =   0.0937500
        k(   23) = (   0.6250000  -0.3750000   0.8750000), wk =   0.1875000
        k(   24) = (   0.5000000  -0.2500000   0.7500000), wk =   0.0937500
        k(   25) = (   0.7500000  -0.2500000   1.0000000), wk =   0.0937500
        k(   26) = (   0.6250000  -0.1250000   0.8750000), wk =   0.1875000
        k(   27) = (   0.5000000   0.0000000   0.7500000), wk =   0.0937500
        k(   28) = (  -0.2500000  -1.0000000   0.0000000), wk =   0.0468750
        k(   29) = (  -0.5000000  -1.0000000   0.0000000), wk =   0.0234375

     Dense  grid:    11935 G-vectors     FFT dimensions: (  32,  32,  32)

     Smooth grid:     8609 G-vectors     FFT dimensions: (  30,  30,  30)

     Estimated max dynamical RAM per process >       7.39 MB

     Estimated total dynamical RAM >      29.58 MB

     Initial potential from superposition of free atoms

     starting charge    9.99937, renormalised to   10.00000

     negative rho (up, down):  5.975E-05 0.000E+00
     Starting wfcs are   16 randomized atomic wfcs
     Checking if some PAW data can be deallocated... 

     total cpu time spent up to now is        2.9 secs

     Self-consistent Calculation

     iteration #  1     ecut=    40.00 Ry     beta= 0.70
     Davidson diagonalization with overlap
     ethr =  1.00E-02,  avg # of iterations =  4.7

     negative rho (up, down):  5.272E-05 0.000E+00

     total cpu time spent up to now is        3.2 secs

     total energy              =     -87.80031956 Ry
     Harris-Foulkes estimate   =     -88.30309199 Ry
     estimated scf accuracy    <       0.64932518 Ry

     iteration #  2     ecut=    40.00 Ry     beta= 0.70
     Davidson diagonalization with overlap
     ethr =  6.49E-03,  avg # of iterations =  2.0

     negative rho (up, down):  5.026E-05 0.000E+00

     total cpu time spent up to now is        3.4 secs

     total energy              =     -87.23263418 Ry
     Harris-Foulkes estimate   =     -89.07185264 Ry
     estimated scf accuracy    <       6.62905617 Ry

     iteration #  3     ecut=    40.00 Ry     beta= 0.70
     Davidson diagonalization with overlap
     ethr =  6.49E-03,  avg # of iterations =  2.0

     negative rho (up, down):  4.851E-05 0.000E+00

     total cpu time spent up to now is        3.6 secs

     total energy              =     -88.19720463 Ry
     Harris-Foulkes estimate   =     -88.19985464 Ry
     estimated scf accuracy    <       0.06505341 Ry

     iteration #  4     ecut=    40.00 Ry     beta= 0.70
     Davidson diagonalization with overlap
     ethr =  6.51E-04,  avg # of iterations =  1.0

     negative rho (up, down):  1.651E-05 0.000E+00

     total cpu time spent up to now is        3.8 secs

     total energy              =     -88.18032224 Ry
     Harris-Foulkes estimate   =     -88.19828956 Ry
     estimated scf accuracy    <       0.05300901 Ry

     iteration #  5     ecut=    40.00 Ry     beta= 0.70
     Davidson diagonalization with overlap
     ethr =  5.30E-04,  avg # of iterations =  1.3

     negative rho (up, down):  2.058E-05 0.000E+00

     total cpu time spent up to now is        4.0 secs

     total energy              =     -88.18760850 Ry
     Harris-Foulkes estimate   =     -88.18971495 Ry
     estimated scf accuracy    <       0.00542495 Ry

     iteration #  6     ecut=    40.00 Ry     beta= 0.70
     Davidson diagonalization with overlap
     ethr =  5.42E-05,  avg # of iterations =  1.1

     negative rho (up, down):  2.197E-05 0.000E+00

     total cpu time spent up to now is        4.2 secs

     total energy              =     -88.18801182 Ry
     Harris-Foulkes estimate   =     -88.18801934 Ry
     estimated scf accuracy    <       0.00029548 Ry

     iteration #  7     ecut=    40.00 Ry     beta= 0.70
     Davidson diagonalization with overlap
     ethr =  2.95E-06,  avg # of iterations =  2.8

     negative rho (up, down):  2.178E-05 0.000E+00

     total cpu time spent up to now is        4.4 secs

     total energy              =     -88.18805845 Ry
     Harris-Foulkes estimate   =     -88.18808386 Ry
     estimated scf accuracy    <       0.00005855 Ry

     iteration #  8     ecut=    40.00 Ry     beta= 0.70
     Davidson diagonalization with overlap
     ethr =  5.85E-07,  avg # of iterations =  1.6

     negative rho (up, down):  2.205E-05 0.000E+00

     total cpu time spent up to now is        4.6 secs

     total energy              =     -88.18806910 Ry
     Harris-Foulkes estimate   =     -88.18806837 Ry
     estimated scf accuracy    <       0.00000376 Ry

     iteration #  9     ecut=    40.00 Ry     beta= 0.70
     Davidson diagonalization with overlap
     ethr =  3.76E-08,  avg # of iterations =  1.2

     negative rho (up, down):  2.221E-05 0.000E+00

     total cpu time spent up to now is        4.8 secs

     total energy              =     -88.18806954 Ry
     Harris-Foulkes estimate   =     -88.18806934 Ry
     estimated scf accuracy    <       0.00000065 Ry

     iteration # 10     ecut=    40.00 Ry     beta= 0.70
     Davidson diagonalization with overlap
     ethr =  6.54E-09,  avg # of iterations =  1.7

     negative rho (up, down):  2.230E-05 0.000E+00

     total cpu time spent up to now is        5.0 secs

     total energy              =     -88.18806953 Ry
     Harris-Foulkes estimate   =     -88.18806960 Ry
     estimated scf accuracy    <       0.00000022 Ry

     iteration # 11     ecut=    40.00 Ry     beta= 0.70
     Davidson diagonalization with overlap
     ethr =  2.18E-09,  avg # of iterations =  2.0

     negative rho (up, down):  2.227E-05 0.000E+00

     total cpu time spent up to now is        5.2 secs

     total energy              =     -88.18806957 Ry
     Harris-Foulkes estimate   =     -88.18806958 Ry
     estimated scf accuracy    <       0.00000002 Ry

     iteration # 12     ecut=    40.00 Ry     beta= 0.70
     Davidson diagonalization with overlap
     ethr =  2.46E-10,  avg # of iterations =  2.0

     negative rho (up, down):  2.228E-05 0.000E+00

     total cpu time spent up to now is        5.4 secs

     End of self-consistent calculation

          k = 0.0000 0.0000 0.0000 (  1067 PWs)   bands (ev):

   -13.4421  -2.8475   1.6174   1.6174   1.6174   8.2280   8.2280   8.2280
    12.4948

          k =-0.1250 0.1250-0.1250 (  1064 PWs)   bands (ev):

   -13.3920  -2.9730   1.6105   1.6105   1.7739   7.4265   7.8821   7.8821
    12.2708

          k =-0.2500 0.2500-0.2500 (  1074 PWs)   bands (ev):

   -13.2674  -3.2620   1.5988   1.5988   2.1591   5.9203   7.1933   7.1933
    12.0132

          k =-0.3750 0.3750-0.3750 (  1065 PWs)   bands (ev):

   -13.1371  -3.5373   1.6006   1.6006   2.7102   4.5539   6.6227   6.6227
    12.0263

          k = 0.5000-0.5000 0.5000 (  1068 PWs)   bands (ev):

   -13.0813  -3.6491   1.6014   1.6014   3.2968   3.6762   6.4079   6.4079
    12.0991

          k = 0.0000 0.2500 0.0000 (  1054 PWs)   bands (ev):

   -13.3759  -2.9805   1.4697   1.4697   2.0504   6.9079   8.0141   8.0141
    11.5305

          k =-0.1250 0.3750-0.1250 (  1059 PWs)   bands (ev):

   -13.2779  -3.1380   1.3568   1.3671   2.3582   5.8263   7.4650   7.6439
    11.3400

          k =-0.2500 0.5000-0.2500 (  1061 PWs)   bands (ev):

   -13.1509  -3.3416   1.2362   1.3409   2.6427   4.8652   6.8076   7.0864
    11.7883

          k = 0.6250-0.3750 0.6250 (  1074 PWs)   bands (ev):

   -13.0703  -3.4714   1.0398   1.4294   3.0153   4.1458   6.5871   6.6417
    12.3566

          k = 0.5000-0.2500 0.5000 (  1068 PWs)   bands (ev):

   -13.0880  -3.4577   0.9252   1.5811   3.1932   4.0588   6.5019   6.7777
    12.5517

          k = 0.3750-0.1250 0.3750 (  1067 PWs)   bands (ev):

   -13.1924  -3.3136   1.0142   1.6956   2.6937   5.0688   6.7516   7.2134
    12.3838

          k = 0.2500 0.0000 0.2500 (  1055 PWs)   bands (ev):

   -13.3176  -3.1155   1.2916   1.7076   2.1587   6.3946   7.3163   7.7161
    12.1948

          k = 0.0000 0.5000 0.0000 (  1062 PWs)   bands (ev):

   -13.2183  -3.0321   1.1180   1.1180   2.1689   5.5268   7.7842   7.7842
    10.1828

          k =-0.1250 0.6250-0.1250 (  1058 PWs)   bands (ev):

   -13.1211  -2.9749   0.8098   1.0059   1.7684   5.5948   7.3068   7.5571
    10.3396

          k = 0.7500-0.2500 0.7500 (  1076 PWs)   bands (ev):

   -13.0430  -2.9709   0.2373   1.0703   1.9284   5.4613   6.8510   7.1457
    11.3280

          k = 0.6250-0.1250 0.6250 (  1075 PWs)   bands (ev):

   -13.0319  -3.0685   0.0229   1.2934   2.4789   4.8676   6.7699   6.8801
    12.6258

          k = 0.5000 0.0000 0.5000 (  1065 PWs)   bands (ev):

   -13.0947  -3.2308   0.3531   1.5588   3.0543   4.4118   6.5984   7.0473
    13.4312

          k = 0.0000 0.7500 0.0000 (  1058 PWs)   bands (ev):

   -13.0644  -2.5605   0.4917   0.7864   0.7864   6.2830   7.7467   7.7467
     9.2888

          k = 0.8750-0.1250 0.8750 (  1067 PWs)   bands (ev):

   -13.0145  -2.2501  -0.4756   0.7693   1.0068   6.6331   7.1931   7.5922
     9.8059

          k = 0.7500 0.0000 0.7500 (  1069 PWs)   bands (ev):

   -13.0012  -2.4831  -0.6231   0.9642   1.5943   6.0202   6.9069   7.2079
    11.0929

          k = 0.0000-1.0000 0.0000 (  1090 PWs)   bands (ev):

   -13.0024  -1.6597  -1.0185   0.6504   0.6504   6.9160   7.7592   7.7592
     8.9831

          k =-0.2500 0.5000 0.0000 (  1063 PWs)   bands (ev):

   -13.1802  -3.1720   0.8787   1.3955   2.5046   5.1967   7.0935   7.3871
    11.3966

          k = 0.6250-0.3750 0.8750 (  1069 PWs)   bands (ev):

   -13.0795  -3.1764   0.5265   1.1604   2.6661   4.8305   6.7429   7.0497
    12.1819

          k = 0.5000-0.2500 0.7500 (  1072 PWs)   bands (ev):

   -13.0369  -3.1692   0.4056   0.9882   2.7732   4.6677   6.7778   6.7977
    12.9312

          k = 0.7500-0.2500 1.0000 (  1067 PWs)   bands (ev):

   -13.0490  -2.7359   0.3212   0.4982   1.7645   5.9343   7.1305   7.2663
    10.6758

          k = 0.6250-0.1250 0.8750 (  1073 PWs)   bands (ev):

   -13.0066  -2.6029  -0.2592   0.3684   2.2371   5.7028   6.8997   7.0615
    11.8052

          k = 0.5000 0.0000 0.7500 (  1075 PWs)   bands (ev):

   -13.0195  -2.8373  -0.1096   0.6438   2.6205   5.1321   6.8522   6.9566
    13.1840

          k =-0.2500-1.0000 0.0000 (  1070 PWs)   bands (ev):

   -12.9970  -2.0648  -0.8165   0.3491   1.5369   6.8035   6.9133   7.2423
    10.4354

          k =-0.5000-1.0000 0.0000 (  1084 PWs)   bands (ev):

   -12.9916  -2.3508  -0.2862  -0.2862   2.5422   5.6819   6.9487   6.9487
    13.1758

     the Fermi energy is     3.4882 ev

!    total energy              =     -88.18806957 Ry
     Harris-Foulkes estimate   =     -88.18806957 Ry
     estimated scf accuracy    <          3.4E-09 Ry

     total all-electron energy =       -88.188070 Ry

     The total energy is the sum of the following terms:

     one-electron contribution =     -12.50947018 Ry
     hartree contribution      =      11.52646646 Ry
     xc contribution           =      -9.16650299 Ry
     ewald contribution        =     -29.07200065 Ry
     one-center paw contrib.   =     -48.96656170 Ry
     smearing contrib. (-TS)   =      -0.00000051 Ry

     convergence has been achieved in  12 iterations

     negative rho (up, down):  2.228E-05 0.000E+00

     Forces acting on atoms (cartesian axes, Ry/au):

     atom    1 type  1   force =     0.00000000    0.00000000    0.00000000
     atom    2 type  2   force =    -0.00000000   -0.00000000   -0.00000000

     Total force =     0.000000     Total SCF correction =     0.000000


     Computing stress (Cartesian axis) and pressure


     negative rho (up, down):  2.228E-05 0.000E+00
          total   stress  (Ry/bohr**3)                   (kbar)     P= -279.93
  -0.00190295   0.00000000  -0.00000000       -279.93      0.00     -0.00
   0.00000000  -0.00190295   0.00000000          0.00   -279.93      0.00
  -0.00000000   0.00000000  -0.00190295         -0.00      0.00   -279.93


     BFGS Geometry Optimization

     number of scf cycles    =   1
     number of bfgs steps    =   0

     enthalpy new            =     -88.1880695729 Ry

     new trust radius        =       0.1504412229 bohr
     new conv_thr            =       0.0000000100 Ry

     new unit-cell volume =    215.99026 a.u.^3 (    32.00645 Ang^3 )
     density =      2.28716 g/cm^3

CELL_PARAMETERS (alat= 10.00000000)
  -0.476213154   0.000000000   0.476213154
  -0.000000000   0.476213154   0.476213154
  -0.476213154   0.476213154   0.000000000

ATOMIC_POSITIONS (alat)
O        0.000000000   0.000000000   0.000000000
Si       0.476213154   0.476213154   0.476213154



     Writing output data file relax.save/
     NEW-OLD atomic charge density approx. for the potential

     negative rho (up, down):  1.181E-05 0.000E+00
     extrapolated charge    8.42550, renormalised to   10.00000

     total cpu time spent up to now is        7.0 secs

     Self-consistent Calculation

     iteration #  1     ecut=    40.00 Ry     beta= 0.70
     Davidson diagonalization with overlap
     ethr =  1.00E-06,  avg # of iterations =  5.9

     negative rho (up, down):  1.675E-05 0.000E+00

     total cpu time spent up to now is        7.4 secs

     total energy              =     -86.37189473 Ry
     Harris-Foulkes estimate   =     -90.20169539 Ry
     estimated scf accuracy    <       1.65612276 Ry

     iteration #  2     ecut=    40.00 Ry     beta= 0.70
     Davidson diagonalization with overlap
     ethr =  1.00E-02,  avg # of iterations =  2.8

     negative rho (up, down):  4.194E-05 0.000E+00

     total cpu time spent up to now is        7.6 secs

     total energy              =     -87.82304917 Ry
     Harris-Foulkes estimate   =     -91.94094793 Ry
     estimated scf accuracy    <      14.31468122 Ry

     iteration #  3     ecut=    40.00 Ry     beta= 0.70
     Davidson diagonalization with overlap
     ethr =  1.00E-02,  avg # of iterations =  2.6

     negative rho (up, down):  5.370E-05 0.000E+00

     total cpu time spent up to now is        7.8 secs

     total energy              =     -88.22440657 Ry
     Harris-Foulkes estimate   =     -88.57661399 Ry
     estimated scf accuracy    <       1.84417699 Ry

     iteration #  4     ecut=    40.00 Ry     beta= 0.70
     Davidson diagonalization with overlap
     ethr =  1.00E-02,  avg # of iterations =  1.0

     negative rho (up, down):  5.095E-05 0.000E+00

     total cpu time spent up to now is        8.0 secs

     total energy              =     -88.25032165 Ry
     Harris-Foulkes estimate   =     -88.30318605 Ry
     estimated scf accuracy    <       0.35330257 Ry

     iteration #  5     ecut=    40.00 Ry     beta= 0.70
     Davidson diagonalization with overlap
     ethr =  3.53E-03,  avg # of iterations =  1.0

     negative rho (up, down):  4.929E-05 0.000E+00

     total cpu time spent up to now is        8.2 secs

     total energy              =     -88.26085066 Ry
     Harris-Foulkes estimate   =     -88.26341232 Ry
     estimated scf accuracy    <       0.10222733 Ry

     iteration #  6     ecut=    40.00 Ry     beta= 0.70
     Davidson diagonalization with overlap
     ethr =  1.02E-03,  avg # of iterations =  1.0

     negative rho (up, down):  3.381E-05 0.000E+00

     total cpu time spent up to now is        8.4 secs

     total energy              =     -88.25018565 Ry
     Harris-Foulkes estimate   =     -88.26159192 Ry
     estimated scf accuracy    <       0.08494151 Ry

     iteration #  7     ecut=    40.00 Ry     beta= 0.70
     Davidson diagonalization with overlap
     ethr =  8.49E-04,  avg # of iterations =  1.0

     negative rho (up, down):  2.892E-05 0.000E+00

     total cpu time spent up to now is        8.6 secs

     total energy              =     -88.24542792 Ry
     Harris-Foulkes estimate   =     -88.25235600 Ry
     estimated scf accuracy    <       0.02998303 Ry

     iteration #  8     ecut=    40.00 Ry     beta= 0.70
     Davidson diagonalization with overlap
     ethr =  3.00E-04,  avg # of iterations =  1.0

     negative rho (up, down):  3.106E-05 0.000E+00

     total cpu time spent up to now is        8.7 secs

     total energy              =     -88.24677370 Ry
     Harris-Foulkes estimate   =     -88.24756682 Ry
     estimated scf accuracy    <       0.00291651 Ry

     iteration #  9     ecut=    40.00 Ry     beta= 0.70
     Davidson diagonalization with overlap
     ethr =  2.92E-05,  avg # of iterations =  1.4

     negative rho (up, down):  3.333E-05 0.000E+00

     total cpu time spent up to now is        8.9 secs

     total energy              =     -88.24710452 Ry
     Harris-Foulkes estimate   =     -88.24713033 Ry
     estimated scf accuracy    <       0.00008349 Ry

     iteration # 10     ecut=    40.00 Ry     beta= 0.70
     Davidson diagonalization with overlap
     ethr =  8.35E-07,  avg # of iterations =  2.0

     negative rho (up, down):  3.539E-05 0.000E+00

     total cpu time spent up to now is        9.1 secs

     total energy              =     -88.24712576 Ry
     Harris-Foulkes estimate   =     -88.24712490 Ry
     estimated scf accuracy    <       0.00000154 Ry

     iteration # 11     ecut=    40.00 Ry     beta= 0.70
     Davidson diagonalization with overlap
     ethr =  1.54E-08,  avg # of iterations =  2.4

     negative rho (up, down):  3.361E-05 0.000E+00

     total cpu time spent up to now is        9.4 secs

     total energy              =     -88.24712515 Ry
     Harris-Foulkes estimate   =     -88.24712686 Ry
     estimated scf accuracy    <       0.00000360 Ry

     iteration # 12     ecut=    40.00 Ry     beta= 0.70
     Davidson diagonalization with overlap
     ethr =  1.54E-08,  avg # of iterations =  2.0

     negative rho (up, down):  3.413E-05 0.000E+00

     total cpu time spent up to now is        9.6 secs

     total energy              =     -88.24712449 Ry
     Harris-Foulkes estimate   =     -88.24712906 Ry
     estimated scf accuracy    <       0.00001587 Ry

     iteration # 13     ecut=    40.00 Ry     beta= 0.70
     Davidson diagonalization with overlap
     ethr =  1.54E-08,  avg # of iterations =  2.0

     negative rho (up, down):  3.394E-05 0.000E+00

     total cpu time spent up to now is        9.8 secs

     total energy              =     -88.24712649 Ry
     Harris-Foulkes estimate   =     -88.24712617 Ry
     estimated scf accuracy    <       0.00000055 Ry

     iteration # 14     ecut=    40.00 Ry     beta= 0.70
     Davidson diagonalization with overlap
     ethr =  5.48E-09,  avg # of iterations =  1.0

     negative rho (up, down):  3.396E-05 0.000E+00

     total cpu time spent up to now is       10.0 secs

     total energy              =     -88.24712628 Ry
     Harris-Foulkes estimate   =     -88.24712657 Ry
     estimated scf accuracy    <       0.00000148 Ry

     iteration # 15     ecut=    40.00 Ry     beta= 0.70
     Davidson diagonalization with overlap
     ethr =  5.48E-09,  avg # of iterations =  1.0

     negative rho (up, down):  3.445E-05 0.000E+00

     total cpu time spent up to now is       10.1 secs

     total energy              =     -88.24712645 Ry
     Harris-Foulkes estimate   =     -88.24712646 Ry
     estimated scf accuracy    <       0.00000001 Ry

     iteration # 16     ecut=    40.00 Ry     beta= 0.70
     Davidson diagonalization with overlap
     ethr =  1.05E-10,  avg # of iterations =  2.9

     negative rho (up, down):  3.424E-05 0.000E+00

     total cpu time spent up to now is       10.4 secs

     total energy              =     -88.24712645 Ry
     Harris-Foulkes estimate   =     -88.24712648 Ry
     estimated scf accuracy    <       0.00000010 Ry

     iteration # 17     ecut=    40.00 Ry     beta= 0.70
     Davidson diagonalization with overlap
     ethr =  1.05E-10,  avg # of iterations =  2.0

     negative rho (up, down):  3.418E-05 0.000E+00

     total cpu time spent up to now is       10.6 secs

     End of self-consistent calculation

          k = 0.0000 0.0000 0.0000 (  1067 PWs)   bands (ev):

   -12.7654  -1.2238   2.5904   2.5904   2.5904  10.5733  10.5733  10.5733
    14.0670

          k =-0.1312 0.1312-0.1312 (  1064 PWs)   bands (ev):

   -12.6914  -1.4880   2.5743   2.5743   2.8602   9.5973  10.1030  10.1030
    13.9160

          k =-0.2625 0.2625-0.2625 (  1074 PWs)   bands (ev):

   -12.5045  -2.0539   2.5413   2.5413   3.4618   7.8800   9.2315   9.2315
    13.7519

          k =-0.3937 0.3937-0.3937 (  1065 PWs)   bands (ev):

   -12.3047  -2.5656   2.5200   2.5200   4.1697   6.3981   8.5447   8.5447
    13.8470

          k = 0.5250-0.5250 0.5250 (  1068 PWs)   bands (ev):

   -12.2175  -2.7695   2.5126   2.5126   4.7215   5.5744   8.2919   8.2919
    13.9630

          k = 0.0000 0.2625 0.0000 (  1054 PWs)   bands (ev):

   -12.6676  -1.5159   2.4109   2.4109   3.1869   8.9991  10.2499  10.2499
    12.9676

          k =-0.1312 0.3937-0.1312 (  1059 PWs)   bands (ev):

   -12.5206  -1.8633   2.2703   2.2888   3.6577   7.7397   9.5195   9.7749
    12.8775

          k =-0.2625 0.5250-0.2625 (  1061 PWs)   bands (ev):

   -12.3265  -2.2904   2.1213   2.2345   4.1359   6.6152   8.7429   9.0959
    13.5139

          k = 0.6562-0.3937 0.6562 (  1074 PWs)   bands (ev):

   -12.2008  -2.5514   1.8914   2.3227   4.6974   5.7362   8.4968   8.5733
    14.2543

          k = 0.5250-0.2625 0.5250 (  1068 PWs)   bands (ev):

   -12.2285  -2.5099   1.7640   2.4903   4.8601   5.6744   8.4173   8.6898
    14.5038

          k = 0.3937-0.1312 0.3937 (  1067 PWs)   bands (ev):

   -12.3903  -2.1994   1.8672   2.6340   4.1395   6.9056   8.7190   9.1580
    14.2713

          k = 0.2625 0.0000 0.2625 (  1055 PWs)   bands (ev):

   -12.5804  -1.7849   2.1946   2.6690   3.3997   8.4269   9.4030   9.7783
    13.9567

          k = 0.0000 0.5250 0.0000 (  1062 PWs)   bands (ev):

   -12.4301  -1.7903   1.9956   1.9956   3.5236   7.3352   9.9533   9.9533
    11.4584

          k =-0.1312 0.6562-0.1312 (  1058 PWs)   bands (ev):

   -12.2807  -1.8501   1.6420   1.8602   3.1696   7.3647   9.2766   9.6797
    11.8106

          k = 0.7875-0.2625 0.7875 (  1076 PWs)   bands (ev):

   -12.1587  -1.9396   0.9962   1.9243   3.4051   7.1867   8.7681   9.1881
    12.9850

          k = 0.6562-0.1312 0.6562 (  1075 PWs)   bands (ev):

   -12.1412  -2.0530   0.7136   2.1671   4.0811   6.5263   8.7476   8.7741
    14.4823

          k = 0.5250 0.0000 0.5250 (  1065 PWs)   bands (ev):

   -12.2395  -2.1848   1.0825   2.4672   4.7285   6.0275   8.5480   8.9236
    15.8730

          k = 0.0000 0.7875 0.0000 (  1058 PWs)   bands (ev):

   -12.1925  -1.4330   1.6105   1.6105   1.7625   8.1370   9.9242   9.9242
    10.4635

          k = 0.9187-0.1312 0.9187 (  1067 PWs)   bands (ev):

   -12.1141  -1.0852   0.3663   1.5868   2.1332   8.5223   9.1080   9.7398
    11.2673

          k = 0.7875 0.0000 0.7875 (  1069 PWs)   bands (ev):

   -12.0931  -1.2827  -0.0517   1.8003   2.9678   7.8249   8.8156   9.2750
    12.7056

          k = 0.0000-1.0499 0.0000 (  1090 PWs)   bands (ev):

   -12.0949  -0.5032   0.1154   1.4569   1.4569   8.8602   9.9516   9.9516
    10.1240

          k =-0.2625 0.5250 0.0000 (  1063 PWs)   bands (ev):

   -12.3718  -2.0220   1.7055   2.3038   3.9616   6.9717   9.1428   9.3260
    13.0428

          k = 0.6562-0.3937 0.9187 (  1069 PWs)   bands (ev):

   -12.2158  -2.1473   1.2933   2.0532   4.2450   6.4914   8.7015   8.9683
    13.9946

          k = 0.5250-0.2625 0.7875 (  1072 PWs)   bands (ev):

   -12.1490  -2.1915   1.1549   1.8767   4.3958   6.2758   8.7044   8.7365
    14.9210

          k = 0.7875-0.2625 1.0499 (  1067 PWs)   bands (ev):

   -12.1684  -1.6339   1.1985   1.2624   3.0975   7.7446   9.1409   9.1897
    12.2950

          k = 0.6562-0.1312 0.9187 (  1073 PWs)   bands (ev):

   -12.1018  -1.4641   0.4195   1.1664   3.6562   7.4997   8.8105   9.0093
    13.5634

          k = 0.5250 0.0000 0.7875 (  1075 PWs)   bands (ev):

   -12.1219  -1.7509   0.5448   1.5016   4.1510   6.8379   8.8223   8.8330
    15.1062

          k =-0.2625-1.0499 0.0000 (  1070 PWs)   bands (ev):

   -12.0866  -0.6311  -0.2738   1.0905   2.7508   8.8352   8.8367   9.0890
    12.0636

          k =-0.5250-1.0499 0.0000 (  1084 PWs)   bands (ev):

   -12.0782  -1.0412   0.3415   0.3415   3.9968   7.5310   8.8287   8.8287
    15.1205

     the Fermi energy is     5.2396 ev

!    total energy              =     -88.24712646 Ry
     Harris-Foulkes estimate   =     -88.24712646 Ry
     estimated scf accuracy    <          1.5E-09 Ry

     total all-electron energy =       -88.247126 Ry

     The total energy is the sum of the following terms:

     one-electron contribution =     -10.38764546 Ry
     hartree contribution      =      10.91100027 Ry
     xc contribution           =      -9.27513464 Ry
     ewald contribution        =     -30.52414702 Ry
     one-center paw contrib.   =     -48.97119961 Ry
     smearing contrib. (-TS)   =      -0.00000000 Ry

     convergence has been achieved in  17 iterations

     negative rho (up, down):  3.418E-05 0.000E+00

     Forces acting on atoms (cartesian axes, Ry/au):

     atom    1 type  1   force =    -0.00000000   -0.00000000    0.00000000
     atom    2 type  2   force =     0.00000000    0.00000000   -0.00000000

     Total force =     0.000000     Total SCF correction =     0.000000


     Computing stress (Cartesian axis) and pressure


     negative rho (up, down):  3.418E-05 0.000E+00
          total   stress  (Ry/bohr**3)                   (kbar)     P= -224.70
  -0.00152746   0.00000000   0.00000000       -224.70      0.00      0.00
   0.00000000  -0.00152746  -0.00000000          0.00   -224.70     -0.00
   0.00000000  -0.00000000  -0.00152746          0.00     -0.00   -224.70


     number of scf cycles    =   2
     number of bfgs steps    =   1

     enthalpy old            =     -88.1880695729 Ry
     enthalpy new            =     -88.2471264574 Ry

     CASE: enthalpy_new < enthalpy_old

     new trust radius        =       0.2202286444 bohr
     new conv_thr            =            1.0E-10 Ry

     new unit-cell volume =    170.98775 a.u.^3 (    25.33777 Ang^3 )
     density =      2.88913 g/cm^3

CELL_PARAMETERS (alat= 10.00000000)
  -0.440532885  -0.000000000   0.440532885
   0.000000000   0.440532885   0.440532885
  -0.440532885   0.440532885  -0.000000000

ATOMIC_POSITIONS (alat)
O       -0.000000000  -0.000000000   0.000000000
Si       0.440532885   0.440532885   0.440532885



     Writing output data file relax.save/
     NEW-OLD atomic charge density approx. for the potential

     negative rho (up, down):  5.937E-06 0.000E+00
     extrapolated charge    7.36825, renormalised to   10.00000

     total cpu time spent up to now is       11.9 secs

     Self-consistent Calculation

     iteration #  1     ecut=    40.00 Ry     beta= 0.70
     Davidson diagonalization with overlap
     ethr =  1.00E-06,  avg # of iterations =  6.5

     negative rho (up, down):  5.116E-05 0.000E+00

     total cpu time spent up to now is       12.2 secs

     total energy              =     -85.15035868 Ry
     Harris-Foulkes estimate   =     -91.08896495 Ry
     estimated scf accuracy    <       2.76276015 Ry

     iteration #  2     ecut=    40.00 Ry     beta= 0.70
     Davidson diagonalization with overlap
     ethr =  1.00E-02,  avg # of iterations =  3.3

     negative rho (up, down):  8.949E-05 0.000E+00

     total cpu time spent up to now is       12.4 secs

     total energy              =     -87.82315882 Ry
     Harris-Foulkes estimate   =     -92.93216157 Ry
     estimated scf accuracy    <      15.40052707 Ry

     iteration #  3     ecut=    40.00 Ry     beta= 0.70
     Davidson diagonalization with overlap
     ethr =  1.00E-02,  avg # of iterations =  2.7

     negative rho (up, down):  1.003E-04 0.000E+00

     total cpu time spent up to now is       12.5 secs

     total energy              =     -88.23397615 Ry
     Harris-Foulkes estimate   =     -88.76609600 Ry
     estimated scf accuracy    <       2.07892087 Ry

     iteration #  4     ecut=    40.00 Ry     beta= 0.70
     Davidson diagonalization with overlap
     ethr =  1.00E-02,  avg # of iterations =  1.2

     negative rho (up, down):  1.022E-04 0.000E+00

     total cpu time spent up to now is       12.7 secs

     total energy              =     -88.29931857 Ry
     Harris-Foulkes estimate   =     -88.35625445 Ry
     estimated scf accuracy    <       0.32037780 Ry

     iteration #  5     ecut=    40.00 Ry     beta= 0.70
     Davidson diagonalization with overlap
     ethr =  3.20E-03,  avg # of iterations =  1.0

     negative rho (up, down):  1.000E-04 0.000E+00

     total cpu time spent up to now is       12.8 secs

     total energy              =     -88.30677701 Ry
     Harris-Foulkes estimate   =     -88.31288959 Ry
     estimated scf accuracy    <       0.09946170 Ry

     iteration #  6     ecut=    40.00 Ry     beta= 0.70
     Davidson diagonalization with overlap
     ethr =  9.95E-04,  avg # of iterations =  1.0

     negative rho (up, down):  8.413E-05 0.000E+00

     total cpu time spent up to now is       12.9 secs

     total energy              =     -88.28463708 Ry
     Harris-Foulkes estimate   =     -88.30788298 Ry
     estimated scf accuracy    <       0.07001290 Ry

     iteration #  7     ecut=    40.00 Ry     beta= 0.70
     Davidson diagonalization with overlap
     ethr =  7.00E-04,  avg # of iterations =  1.3

     negative rho (up, down):  9.059E-05 0.000E+00

     total cpu time spent up to now is       13.0 secs

     total energy              =     -88.29346107 Ry
     Harris-Foulkes estimate   =     -88.29348624 Ry
     estimated scf accuracy    <       0.00137544 Ry

     iteration #  8     ecut=    40.00 Ry     beta= 0.70
     Davidson diagonalization with overlap
     ethr =  1.38E-05,  avg # of iterations =  1.9

     negative rho (up, down):  9.208E-05 0.000E+00

     total cpu time spent up to now is       13.2 secs

     total energy              =     -88.29329107 Ry
     Harris-Foulkes estimate   =     -88.29360731 Ry
     estimated scf accuracy    <       0.00120016 Ry

     iteration #  9     ecut=    40.00 Ry     beta= 0.70
     Davidson diagonalization with overlap
     ethr =  1.20E-05,  avg # of iterations =  1.0

     negative rho (up, down):  9.357E-05 0.000E+00

     total cpu time spent up to now is       13.3 secs

     total energy              =     -88.29333619 Ry
     Harris-Foulkes estimate   =     -88.29338502 Ry
     estimated scf accuracy    <       0.00012913 Ry

     iteration # 10     ecut=    40.00 Ry     beta= 0.70
     Davidson diagonalization with overlap
     ethr =  1.29E-06,  avg # of iterations =  1.8

     negative rho (up, down):  9.363E-05 0.000E+00

     total cpu time spent up to now is       13.4 secs

     total energy              =     -88.29336035 Ry
     Harris-Foulkes estimate   =     -88.29336038 Ry
     estimated scf accuracy    <       0.00000010 Ry

     iteration # 11     ecut=    40.00 Ry     beta= 0.70
     Davidson diagonalization with overlap
     ethr =  9.86E-10,  avg # of iterations =  2.9

     negative rho (up, down):  9.362E-05 0.000E+00

     total cpu time spent up to now is       13.6 secs

     total energy              =     -88.29336055 Ry
     Harris-Foulkes estimate   =     -88.29336059 Ry
     estimated scf accuracy    <       0.00000023 Ry

     iteration # 12     ecut=    40.00 Ry     beta= 0.70
     Davidson diagonalization with overlap
     ethr =  9.86E-10,  avg # of iterations =  1.2

     negative rho (up, down):  9.370E-05 0.000E+00

     total cpu time spent up to now is       13.7 secs

     total energy              =     -88.29336055 Ry
     Harris-Foulkes estimate   =     -88.29336056 Ry
     estimated scf accuracy    <       0.00000006 Ry

     iteration # 13     ecut=    40.00 Ry     beta= 0.70
     Davidson diagonalization with overlap
     ethr =  6.16E-10,  avg # of iterations =  1.0

     negative rho (up, down):  9.374E-05 0.000E+00

     total cpu time spent up to now is       13.8 secs

     total energy              =     -88.29336055 Ry
     Harris-Foulkes estimate   =     -88.29336055 Ry
     estimated scf accuracy    <          6.6E-09 Ry

     iteration # 14     ecut=    40.00 Ry     beta= 0.70
     Davidson diagonalization with overlap
     ethr =  6.64E-11,  avg # of iterations =  1.0

     negative rho (up, down):  9.374E-05 0.000E+00

     total cpu time spent up to now is       13.9 secs

     total energy              =     -88.29336055 Ry
     Harris-Foulkes estimate   =     -88.29336055 Ry
     estimated scf accuracy    <          2.6E-09 Ry

     iteration # 15     ecut=    40.00 Ry     beta= 0.70
     Davidson diagonalization with overlap
     ethr =  2.56E-11,  avg # of iterations =  1.3

     negative rho (up, down):  9.372E-05 0.000E+00

     total cpu time spent up to now is       14.1 secs

     End of self-consistent calculation

          k = 0.0000 0.0000 0.0000 (  1067 PWs)   bands (ev):

   -11.7009   1.9933   4.4222   4.4222   4.4222  15.0292  15.0292  15.0292
    16.9585

          k =-0.1419 0.1419-0.1419 (  1064 PWs)   bands (ev):

   -11.5767   1.2657   4.3855   4.3855   5.0898  13.5853  14.2350  14.2350
    17.0980

          k =-0.2837 0.2837-0.2837 (  1074 PWs)   bands (ev):

   -11.2547   0.0433   4.3053   4.3053   6.1558  11.5557  13.0024  13.0024
    17.0829

          k =-0.4256 0.4256-0.4256 (  1065 PWs)   bands (ev):

   -10.8938  -0.9575   4.2367   4.2367   7.0460  10.0422  12.1095  12.1095
    17.2793

          k = 0.5675-0.5675 0.5675 (  1068 PWs)   bands (ev):

   -10.7298  -1.3498   4.2112   4.2112   7.4802   9.3903  11.7909  11.7909
    17.4572

          k = 0.0000 0.2837 0.0000 (  1054 PWs)   bands (ev):

   -11.5365   1.1924   4.1823   4.1823   5.5117  12.9299  14.3814  14.3814
    15.6079

          k =-0.1419 0.4256-0.1419 (  1059 PWs)   bands (ev):

   -11.2832   0.3786   3.9859   4.0198   6.3459  11.3553  13.1746  13.7201
    15.8925

          k =-0.2837 0.5675-0.2837 (  1061 PWs)   bands (ev):

   -10.9352  -0.5361   3.7769   3.9083   7.1485   9.9904  12.2823  12.8270
    16.8316

          k = 0.7094-0.4256 0.7094 (  1074 PWs)   bands (ev):

   -10.6998  -1.0725   3.4840   3.9895   7.9207   8.9564  12.0496  12.1687
    17.8428

          k = 0.5675-0.2837 0.5675 (  1068 PWs)   bands (ev):

   -10.7526  -0.9685   3.3349   4.1859   8.0191   8.9877  11.9870  12.2170
    18.2127

          k = 0.4256-0.1419 0.4256 (  1067 PWs)   bands (ev):

   -11.0514  -0.2994   3.4664   4.3865   7.0704  10.4388  12.3834  12.6529
    17.9552

          k = 0.2837 0.0000 0.2837 (  1055 PWs)   bands (ev):

   -11.3872   0.5908   3.8912   4.4714   5.9740  12.2609  13.2887  13.4045
    17.5022

          k = 0.0000 0.5675 0.0000 (  1062 PWs)   bands (ev):

   -11.1233   0.3446   3.6452   3.6452   6.3424  10.7686  13.8042  13.9995
    13.9995

          k =-0.1419 0.7094-0.1419 (  1058 PWs)   bands (ev):

   -10.8518  -0.0218   3.1986   3.4638   6.1305  10.7235  12.6102  13.6525
    14.9108

          k = 0.8512-0.2837 0.8512 (  1076 PWs)   bands (ev):

   -10.6224  -0.3309   2.4210   3.5219   6.4889  10.4423  12.2707  13.0124
    16.2166

          k = 0.7094-0.1419 0.7094 (  1075 PWs)   bands (ev):

   -10.5889  -0.4407   2.0148   3.7981   7.3382   9.7083  12.2678  12.4535
    17.9841

          k = 0.5675 0.0000 0.5675 (  1065 PWs)   bands (ev):

   -10.7751  -0.4477   2.4447   4.1609   8.1132   9.1401  12.1980  12.3184
    19.6624

          k = 0.0000 0.8512 0.0000 (  1058 PWs)   bands (ev):

   -10.6869   0.2080   3.1598   3.1598   4.6600  11.6451  12.6261  14.0297
    14.0297

          k = 0.9931-0.1419 0.9931 (  1067 PWs)   bands (ev):

   -10.5373   0.3836   2.1168   3.1225   4.8082  11.9387  12.3451  13.7905
    14.5096

          k = 0.8512 0.0000 0.8512 (  1069 PWs)   bands (ev):

   -10.4972   0.5850   1.0194   3.3668   5.9137  11.1527  12.3694  13.1634
    15.8481

          k = 0.0000-1.1350 0.0000 (  1090 PWs)   bands (ev):

   -10.4998   0.4641   2.9713   2.9713   3.4623  12.2251  12.5113  14.0993
    14.0993

          k =-0.2837 0.5675 0.0000 (  1063 PWs)   bands (ev):

   -11.0184  -0.0654   3.2544   4.0035   6.9513  10.3593  12.7052  12.9815
    16.3044

          k = 0.7094-0.4256 0.9931 (  1069 PWs)   bands (ev):

   -10.7304  -0.4758   2.7292   3.7125   7.4787   9.6679  12.2564  12.5539
    17.4807

          k = 0.5675-0.2837 0.8512 (  1072 PWs)   bands (ev):

   -10.6031  -0.6478   2.5617   3.5245   7.7262   9.3388  12.2267  12.3995
    18.6955

          k = 0.8512-0.2837 1.1350 (  1067 PWs)   bands (ev):

   -10.6414   0.0453   2.6933   2.8513   6.0002  11.1703  12.3158  13.0774
    15.6477

          k = 0.7094-0.1419 0.9931 (  1073 PWs)   bands (ev):

   -10.5140   0.2454   1.7238   2.7076   6.6570  10.8803  12.2847  12.6524
    16.9902

          k = 0.5675 0.0000 0.8512 (  1075 PWs)   bands (ev):

   -10.5528  -0.0369   1.7671   3.1145   7.3321  10.0836  12.2574  12.5124
    18.7294

          k =-0.2837-1.1350 0.0000 (  1070 PWs)   bands (ev):

   -10.4845   0.7451   1.6487   2.4788   5.4454  12.1652  12.4326  12.7014
    15.4987

          k =-0.5675-1.1350 0.0000 (  1084 PWs)   bands (ev):

   -10.4691   1.0997   1.5146   1.5146   7.0360  11.0722  12.2602  12.2602
    18.8263

     the Fermi energy is     8.5225 ev

!    total energy              =     -88.29336055 Ry
     Harris-Foulkes estimate   =     -88.29336055 Ry
     estimated scf accuracy    <          5.5E-11 Ry

     total all-electron energy =       -88.293361 Ry

     The total energy is the sum of the following terms:

     one-electron contribution =      -6.75694779 Ry
     hartree contribution      =       9.92815643 Ry
     xc contribution           =      -9.48125818 Ry
     ewald contribution        =     -32.99640237 Ry
     one-center paw contrib.   =     -48.98690863 Ry
     smearing contrib. (-TS)   =      -0.00000000 Ry

     convergence has been achieved in  15 iterations

     negative rho (up, down):  9.372E-05 0.000E+00

     Forces acting on atoms (cartesian axes, Ry/au):

     atom    1 type  1   force =    -0.00000000   -0.00000000   -0.00000000
     atom    2 type  2   force =    -0.00000000   -0.00000000    0.00000000

     Total force =     0.000000     Total SCF correction =     0.000000


     Computing stress (Cartesian axis) and pressure


     negative rho (up, down):  9.372E-05 0.000E+00
          total   stress  (Ry/bohr**3)                   (kbar)     P=  -45.25
  -0.00030759  -0.00000000  -0.00000000        -45.25     -0.00     -0.00
  -0.00000000  -0.00030759  -0.00000000         -0.00    -45.25     -0.00
   0.00000000  -0.00000000  -0.00030759          0.00     -0.00    -45.25


     number of scf cycles    =   3
     number of bfgs steps    =   2

     enthalpy old            =     -88.2471264574 Ry
     enthalpy new            =     -88.2933605508 Ry

     CASE: enthalpy_new < enthalpy_old

     new trust radius        =       0.0441014053 bohr
     new conv_thr            =            1.0E-10 Ry

     new unit-cell volume =    162.48260 a.u.^3 (    24.07744 Ang^3 )
     density =      3.04036 g/cm^3

CELL_PARAMETERS (alat= 10.00000000)
  -0.433104091  -0.000000000   0.433104091
   0.000000000   0.433104091   0.433104091
  -0.433104091   0.433104091  -0.000000000

ATOMIC_POSITIONS (alat)
O       -0.000000000  -0.000000000   0.000000000
Si       0.433104091   0.433104091   0.433104091



     Writing output data file relax.save/
     NEW-OLD atomic charge density approx. for the potential

     negative rho (up, down):  8.148E-05 0.000E+00
     extrapolated charge    9.47658, renormalised to   10.00000

     total cpu time spent up to now is       15.0 secs

     Self-consistent Calculation

     iteration #  1     ecut=    40.00 Ry     beta= 0.70
     Davidson diagonalization with overlap
     ethr =  1.00E-06,  avg # of iterations =  4.6

     negative rho (up, down):  9.566E-05 0.000E+00

     total cpu time spent up to now is       15.3 secs

     total energy              =     -88.07428261 Ry
     Harris-Foulkes estimate   =     -88.68579410 Ry
     estimated scf accuracy    <       0.18663362 Ry

     iteration #  2     ecut=    40.00 Ry     beta= 0.70
     Davidson diagonalization with overlap
     ethr =  1.87E-03,  avg # of iterations =  2.4

     negative rho (up, down):  9.877E-05 0.000E+00

     total cpu time spent up to now is       15.4 secs

     total energy              =     -88.17035995 Ry
     Harris-Foulkes estimate   =     -88.66743724 Ry
     estimated scf accuracy    <       1.75799342 Ry

     iteration #  3     ecut=    40.00 Ry     beta= 0.70
     Davidson diagonalization with overlap
     ethr =  1.87E-03,  avg # of iterations =  2.0

     negative rho (up, down):  1.028E-04 0.000E+00

     total cpu time spent up to now is       15.6 secs

     total energy              =     -88.29668763 Ry
     Harris-Foulkes estimate   =     -88.32140963 Ry
     estimated scf accuracy    <       0.12780873 Ry

     iteration #  4     ecut=    40.00 Ry     beta= 0.70
     Davidson diagonalization with overlap
     ethr =  1.28E-03,  avg # of iterations =  1.0

     negative rho (up, down):  1.035E-04 0.000E+00

     total cpu time spent up to now is       15.8 secs

     total energy              =     -88.29777175 Ry
     Harris-Foulkes estimate   =     -88.30158281 Ry
     estimated scf accuracy    <       0.03561274 Ry

     iteration #  5     ecut=    40.00 Ry     beta= 0.70
     Davidson diagonalization with overlap
     ethr =  3.56E-04,  avg # of iterations =  1.0

     negative rho (up, down):  1.040E-04 0.000E+00

     total cpu time spent up to now is       15.9 secs

     total energy              =     -88.29195041 Ry
     Harris-Foulkes estimate   =     -88.29835611 Ry
     estimated scf accuracy    <       0.01962816 Ry

     iteration #  6     ecut=    40.00 Ry     beta= 0.70
     Davidson diagonalization with overlap
     ethr =  1.96E-04,  avg # of iterations =  1.3

     negative rho (up, down):  1.041E-04 0.000E+00

     total cpu time spent up to now is       16.1 secs

     total energy              =     -88.29401897 Ry
     Harris-Foulkes estimate   =     -88.29425765 Ry
     estimated scf accuracy    <       0.00060955 Ry

     iteration #  7     ecut=    40.00 Ry     beta= 0.70
     Davidson diagonalization with overlap
     ethr =  6.10E-06,  avg # of iterations =  2.0

     negative rho (up, down):  1.043E-04 0.000E+00

     total cpu time spent up to now is       16.3 secs

     total energy              =     -88.29418837 Ry
     Harris-Foulkes estimate   =     -88.29419417 Ry
     estimated scf accuracy    <       0.00002257 Ry

     iteration #  8     ecut=    40.00 Ry     beta= 0.70
     Davidson diagonalization with overlap
     ethr =  2.26E-07,  avg # of iterations =  2.0

     negative rho (up, down):  1.039E-04 0.000E+00

     total cpu time spent up to now is       16.6 secs

     total energy              =     -88.29421104 Ry
     Harris-Foulkes estimate   =     -88.29420594 Ry
     estimated scf accuracy    <       0.00007343 Ry

     iteration #  9     ecut=    40.00 Ry     beta= 0.70
     Davidson diagonalization with overlap
     ethr =  2.26E-07,  avg # of iterations =  2.0

     negative rho (up, down):  1.034E-04 0.000E+00

     total cpu time spent up to now is       16.8 secs

     total energy              =     -88.29417669 Ry
     Harris-Foulkes estimate   =     -88.29421533 Ry
     estimated scf accuracy    <       0.00013140 Ry

     iteration # 10     ecut=    40.00 Ry     beta= 0.70
     Davidson diagonalization with overlap
     ethr =  2.26E-07,  avg # of iterations =  1.9

     negative rho (up, down):  1.029E-04 0.000E+00

     total cpu time spent up to now is       17.0 secs

     total energy              =     -88.29418419 Ry
     Harris-Foulkes estimate   =     -88.29418849 Ry
     estimated scf accuracy    <       0.00001020 Ry

     iteration # 11     ecut=    40.00 Ry     beta= 0.70
     Davidson diagonalization with overlap
     ethr =  1.02E-07,  avg # of iterations =  1.6

     negative rho (up, down):  1.028E-04 0.000E+00

     total cpu time spent up to now is       17.2 secs

     total energy              =     -88.29418611 Ry
     Harris-Foulkes estimate   =     -88.29418616 Ry
     estimated scf accuracy    <       0.00000020 Ry

     iteration # 12     ecut=    40.00 Ry     beta= 0.70
     Davidson diagonalization with overlap
     ethr =  1.95E-09,  avg # of iterations =  1.9

     negative rho (up, down):  1.028E-04 0.000E+00

     total cpu time spent up to now is       17.4 secs

     total energy              =     -88.29418614 Ry
     Harris-Foulkes estimate   =     -88.29418614 Ry
     estimated scf accuracy    <       0.00000003 Ry

     iteration # 13     ecut=    40.00 Ry     beta= 0.70
     Davidson diagonalization with overlap
     ethr =  3.20E-10,  avg # of iterations =  1.0

     negative rho (up, down):  1.027E-04 0.000E+00

     total cpu time spent up to now is       17.6 secs

     total energy              =     -88.29418614 Ry
     Harris-Foulkes estimate   =     -88.29418614 Ry
     estimated scf accuracy    <       0.00000002 Ry

     iteration # 14     ecut=    40.00 Ry     beta= 0.70
     Davidson diagonalization with overlap
     ethr =  1.64E-10,  avg # of iterations =  1.2

     negative rho (up, down):  1.027E-04 0.000E+00

     total cpu time spent up to now is       17.8 secs

     total energy              =     -88.29418614 Ry
     Harris-Foulkes estimate   =     -88.29418614 Ry
     estimated scf accuracy    <          2.8E-09 Ry

     iteration # 15     ecut=    40.00 Ry     beta= 0.70
     Davidson diagonalization with overlap
     ethr =  2.83E-11,  avg # of iterations =  2.0

     negative rho (up, down):  1.027E-04 0.000E+00

     total cpu time spent up to now is       18.0 secs

     total energy              =     -88.29418614 Ry
     Harris-Foulkes estimate   =     -88.29418614 Ry
     estimated scf accuracy    <          1.4E-09 Ry

     iteration # 16     ecut=    40.00 Ry     beta= 0.70
     Davidson diagonalization with overlap
     ethr =  1.36E-11,  avg # of iterations =  1.6

     negative rho (up, down):  1.027E-04 0.000E+00

     total cpu time spent up to now is       18.2 secs

     End of self-consistent calculation

          k = 0.0000 0.0000 0.0000 (  1067 PWs)   bands (ev):

   -11.4625   2.8173   4.8785   4.8785   4.8785  16.1325  16.1325  16.1325
    17.6583

          k =-0.1443 0.1443-0.1443 (  1064 PWs)   bands (ev):

   -11.3255   1.9219   4.8362   4.8362   5.6947  14.5281  15.2348  15.2348
    17.9172

          k =-0.2886 0.2886-0.2886 (  1074 PWs)   bands (ev):

   -10.9681   0.5316   4.7430   4.7430   6.8679  12.4490  13.9159  13.9159
    17.9222

          k =-0.4329 0.4329-0.4329 (  1065 PWs)   bands (ev):

   -10.5629  -0.5886   4.6620   4.6620   7.7745  10.9655  12.9766  12.9766
    18.1283

          k = 0.5772-0.5772 0.5772 (  1068 PWs)   bands (ev):

   -10.3767  -1.0281   4.6316   4.6316   8.1736  10.3645  12.6433  12.6433
    18.3161

          k = 0.0000 0.2886 0.0000 (  1054 PWs)   bands (ev):

   -11.2811   1.8399   4.6234   4.6234   6.1369  13.8925  15.3725  15.3725
    16.2469

          k =-0.1443 0.4329-0.1443 (  1059 PWs)   bands (ev):

   -11.0000   0.9035   4.4125   4.4501   7.0597  12.2437  14.0145  14.6752
    16.6748

          k =-0.2886 0.5772-0.2886 (  1061 PWs)   bands (ev):

   -10.6099  -0.1325   4.1874   4.3238   7.9222  10.8332  13.1309  13.7349
    17.6673

          k = 0.7215-0.4329 0.7215 (  1074 PWs)   bands (ev):

   -10.3431  -0.7384   3.8789   4.4024   8.7014   9.8015  12.9181  13.0460
    18.7318

          k = 0.5772-0.2886 0.5772 (  1068 PWs)   bands (ev):

   -10.4032  -0.6181   3.7248   4.6058   8.7865   9.8568  12.8588  13.0731
    19.1337

          k = 0.4329-0.1443 0.4329 (  1067 PWs)   bands (ev):

   -10.7407   0.1420   3.8636   4.8207   7.8300  11.3180  13.2775  13.4812
    18.8896

          k = 0.2886 0.0000 0.2886 (  1055 PWs)   bands (ev):

   -11.1156   1.1499   4.3131   4.9191   6.6624  13.2008  14.2355  14.2381
    18.4293

          k = 0.0000 0.5772 0.0000 (  1062 PWs)   bands (ev):

   -10.8214   0.8396   4.0556   4.0556   7.0877  11.6182  14.3727  14.9866
    14.9866

          k =-0.1443 0.7215-0.1443 (  1058 PWs)   bands (ev):

   -10.5161   0.3919   3.5849   3.8626   6.9086  11.5553  13.3374  14.6256
    15.7617

          k = 0.8658-0.2886 0.8658 (  1076 PWs)   bands (ev):

   -10.2556   0.0256   2.7747   3.9184   7.2879  11.2444  13.1110  13.9499
    17.0415

          k = 0.7215-0.1443 0.7215 (  1075 PWs)   bands (ev):

   -10.2174  -0.0803   2.3395   4.2023   8.1676  10.5057  13.1172  13.3629
    18.8502

          k = 0.5772 0.0000 0.5772 (  1065 PWs)   bands (ev):

   -10.4292  -0.0478   2.7825   4.5803   8.9799   9.9199  13.0930  13.1309
    20.5919

          k = 0.0000 0.8658 0.0000 (  1058 PWs)   bands (ev):

   -10.3292   0.5609   3.5455   3.5455   5.4345  12.5150  13.1506  15.0419
    15.0419

          k = 1.0101-0.1443 1.0101 (  1067 PWs)   bands (ev):

   -10.1587   0.6830   2.5309   3.5046   5.5549  12.6673  13.1535  14.7897
    15.4114

          k = 0.8658 0.0000 0.8658 (  1069 PWs)   bands (ev):

   -10.1130   0.9942   1.2863   3.7560   6.6883  11.9537  13.2401  14.1205
    16.6502

          k = 0.0000-1.1545 0.0000 (  1090 PWs)   bands (ev):

   -10.1156   0.7059   3.3482   3.3482   4.2885  12.7349  13.4123  15.1253
    15.1253

          k =-0.2886 0.5772 0.0000 (  1063 PWs)   bands (ev):

   -10.7037   0.3885   3.6390   4.4251   7.7313  11.1993  13.4807  13.9223
    17.1415

          k = 0.7215-0.4329 1.0101 (  1069 PWs)   bands (ev):

   -10.3785  -0.0963   3.0859   4.1225   8.3114  10.4588  13.0889  13.4504
    18.3541

          k = 0.5772-0.2886 0.8658 (  1072 PWs)   bands (ev):

   -10.2334  -0.3032   2.9118   3.9307   8.5817  10.0999  13.0833  13.2974
    19.6314

          k = 0.8658-0.2886 1.1545 (  1067 PWs)   bands (ev):

   -10.2775   0.4119   3.0486   3.2568   6.7736  12.0187  13.0287  14.0374
    16.5343

          k = 0.7215-0.1443 1.0101 (  1073 PWs)   bands (ev):

   -10.1322   0.6088   2.0512   3.0954   7.4454  11.7088  13.1151  13.5513
    17.8602

          k = 0.5772 0.0000 0.8658 (  1075 PWs)   bands (ev):

   -10.1765   0.3440   2.0706   3.5137   8.1573  10.8896  13.0822  13.4187
    19.6243

          k =-0.2886-1.1545 0.0000 (  1070 PWs)   bands (ev):

   -10.0984   0.9995   2.1415   2.8237   6.1815  12.8504  13.3165  13.6612
    16.4135

          k =-0.5772-1.1545 0.0000 (  1084 PWs)   bands (ev):

   -10.0810   1.5799   1.8062   1.8062   7.8327  11.9554  13.0862  13.0862
    19.7489

     the Fermi energy is     9.3796 ev

!    total energy              =     -88.29418614 Ry
     Harris-Foulkes estimate   =     -88.29418614 Ry
     estimated scf accuracy    <          4.5E-11 Ry

     total all-electron energy =       -88.294186 Ry

     The total energy is the sum of the following terms:

     one-electron contribution =      -5.92512079 Ry
     hartree contribution      =       9.71827119 Ry
     xc contribution           =      -9.53302241 Ry
     ewald contribution        =     -33.56237129 Ry
     one-center paw contrib.   =     -48.99194284 Ry
     smearing contrib. (-TS)   =      -0.00000000 Ry

     convergence has been achieved in  16 iterations

     negative rho (up, down):  1.027E-04 0.000E+00

     Forces acting on atoms (cartesian axes, Ry/au):

     atom    1 type  1   force =     0.00000000   -0.00000000    0.00000000
     atom    2 type  2   force =     0.00000000   -0.00000000    0.00000000

     Total force =     0.000000     Total SCF correction =     0.000000


     Computing stress (Cartesian axis) and pressure


     negative rho (up, down):  1.027E-04 0.000E+00
          total   stress  (Ry/bohr**3)                   (kbar)     P=   19.28
   0.00013106  -0.00000000  -0.00000000         19.28     -0.00     -0.00
  -0.00000000   0.00013106   0.00000000         -0.00     19.28      0.00
  -0.00000000   0.00000000   0.00013106         -0.00      0.00     19.28


     number of scf cycles    =   4
     number of bfgs steps    =   3

     enthalpy old            =     -88.2933605508 Ry
     enthalpy new            =     -88.2941861381 Ry

     CASE: enthalpy_new < enthalpy_old

     new trust radius        =       0.0127557913 bohr
     new conv_thr            =            1.0E-10 Ry

     new unit-cell volume =    164.93377 a.u.^3 (    24.44066 Ang^3 )
     density =      2.99517 g/cm^3

CELL_PARAMETERS (alat= 10.00000000)
  -0.435271128  -0.000000000   0.435271128
   0.000000000   0.435271128   0.435271128
  -0.435271128   0.435271128  -0.000000000

ATOMIC_POSITIONS (alat)
O       -0.000000000  -0.000000000   0.000000000
Si       0.435271128   0.435271128   0.435271128



     Writing output data file relax.save/
     NEW-OLD atomic charge density approx. for the potential

     negative rho (up, down):  1.062E-04 0.000E+00
     extrapolated charge   10.14861, renormalised to   10.00000

     total cpu time spent up to now is       19.8 secs

     Self-consistent Calculation

     iteration #  1     ecut=    40.00 Ry     beta= 0.70
     Davidson diagonalization with overlap
     ethr =  1.00E-06,  avg # of iterations =  3.8

     negative rho (up, down):  1.023E-04 0.000E+00

     total cpu time spent up to now is       20.1 secs

     total energy              =     -88.27409665 Ry
     Harris-Foulkes estimate   =     -88.19774074 Ry
     estimated scf accuracy    <       0.01726349 Ry

     iteration #  2     ecut=    40.00 Ry     beta= 0.70
     Davidson diagonalization with overlap
     ethr =  1.73E-04,  avg # of iterations =  2.4

     negative rho (up, down):  1.025E-04 0.000E+00

     total cpu time spent up to now is       20.3 secs

     total energy              =     -88.28455734 Ry
     Harris-Foulkes estimate   =     -88.32777372 Ry
     estimated scf accuracy    <       0.14680225 Ry

     iteration #  3     ecut=    40.00 Ry     beta= 0.70
     Davidson diagonalization with overlap
     ethr =  1.73E-04,  avg # of iterations =  2.0

     negative rho (up, down):  1.023E-04 0.000E+00

     total cpu time spent up to now is       20.5 secs

     total energy              =     -88.29661679 Ry
     Harris-Foulkes estimate   =     -88.29705852 Ry
     estimated scf accuracy    <       0.01243912 Ry

     iteration #  4     ecut=    40.00 Ry     beta= 0.70
     Davidson diagonalization with overlap
     ethr =  1.24E-04,  avg # of iterations =  1.0

     negative rho (up, down):  1.021E-04 0.000E+00

     total cpu time spent up to now is       20.7 secs

     total energy              =     -88.29438335 Ry
     Harris-Foulkes estimate   =     -88.29664230 Ry
     estimated scf accuracy    <       0.01051535 Ry

     iteration #  5     ecut=    40.00 Ry     beta= 0.70
     Davidson diagonalization with overlap
     ethr =  1.05E-04,  avg # of iterations =  1.0

     negative rho (up, down):  1.008E-04 0.000E+00

     total cpu time spent up to now is       20.9 secs

     total energy              =     -88.29417216 Ry
     Harris-Foulkes estimate   =     -88.29485865 Ry
     estimated scf accuracy    <       0.00244523 Ry

     iteration #  6     ecut=    40.00 Ry     beta= 0.70
     Davidson diagonalization with overlap
     ethr =  2.45E-05,  avg # of iterations =  1.0

     negative rho (up, down):  1.008E-04 0.000E+00

     total cpu time spent up to now is       21.1 secs

     total energy              =     -88.29438368 Ry
     Harris-Foulkes estimate   =     -88.29438054 Ry
     estimated scf accuracy    <       0.00021085 Ry

     iteration #  7     ecut=    40.00 Ry     beta= 0.70
     Davidson diagonalization with overlap
     ethr =  2.11E-06,  avg # of iterations =  1.0

     negative rho (up, down):  1.008E-04 0.000E+00

     total cpu time spent up to now is       21.2 secs

     total energy              =     -88.29438653 Ry
     Harris-Foulkes estimate   =     -88.29438623 Ry
     estimated scf accuracy    <       0.00023671 Ry

     iteration #  8     ecut=    40.00 Ry     beta= 0.70
     Davidson diagonalization with overlap
     ethr =  2.11E-06,  avg # of iterations =  1.0

     negative rho (up, down):  1.007E-04 0.000E+00

     total cpu time spent up to now is       21.4 secs

     total energy              =     -88.29441769 Ry
     Harris-Foulkes estimate   =     -88.29438676 Ry
     estimated scf accuracy    <       0.00023173 Ry

     iteration #  9     ecut=    40.00 Ry     beta= 0.70
     Davidson diagonalization with overlap
     ethr =  2.11E-06,  avg # of iterations =  1.0

     negative rho (up, down):  1.009E-04 0.000E+00

     total cpu time spent up to now is       21.6 secs

     total energy              =     -88.29427175 Ry
     Harris-Foulkes estimate   =     -88.29442094 Ry
     estimated scf accuracy    <       0.00038514 Ry

     iteration # 10     ecut=    40.00 Ry     beta= 0.70
     Davidson diagonalization with overlap
     ethr =  2.11E-06,  avg # of iterations =  1.8

     negative rho (up, down):  1.008E-04 0.000E+00

     total cpu time spent up to now is       21.8 secs

     total energy              =     -88.29433666 Ry
     Harris-Foulkes estimate   =     -88.29433666 Ry
     estimated scf accuracy    <       0.00000008 Ry

     iteration # 11     ecut=    40.00 Ry     beta= 0.70
     Davidson diagonalization with overlap
     ethr =  7.79E-10,  avg # of iterations =  3.0

     negative rho (up, down):  1.007E-04 0.000E+00

     total cpu time spent up to now is       22.1 secs

     total energy              =     -88.29433696 Ry
     Harris-Foulkes estimate   =     -88.29433699 Ry
     estimated scf accuracy    <       0.00000007 Ry

     iteration # 12     ecut=    40.00 Ry     beta= 0.70
     Davidson diagonalization with overlap
     ethr =  7.13E-10,  avg # of iterations =  1.7

     negative rho (up, down):  1.003E-04 0.000E+00

     total cpu time spent up to now is       22.2 secs

     total energy              =     -88.29433701 Ry
     Harris-Foulkes estimate   =     -88.29433698 Ry
     estimated scf accuracy    <       0.00000002 Ry

     iteration # 13     ecut=    40.00 Ry     beta= 0.70
     Davidson diagonalization with overlap
     ethr =  1.76E-10,  avg # of iterations =  2.0

     negative rho (up, down):  1.003E-04 0.000E+00

     total cpu time spent up to now is       22.5 secs

     total energy              =     -88.29433697 Ry
     Harris-Foulkes estimate   =     -88.29433701 Ry
     estimated scf accuracy    <       0.00000008 Ry

     iteration # 14     ecut=    40.00 Ry     beta= 0.70
     Davidson diagonalization with overlap
     ethr =  1.76E-10,  avg # of iterations =  2.0

     negative rho (up, down):  1.002E-04 0.000E+00

     total cpu time spent up to now is       22.7 secs

     total energy              =     -88.29433699 Ry
     Harris-Foulkes estimate   =     -88.29433700 Ry
     estimated scf accuracy    <       0.00000002 Ry

     iteration # 15     ecut=    40.00 Ry     beta= 0.70
     Davidson diagonalization with overlap
     ethr =  1.57E-10,  avg # of iterations =  1.0

     negative rho (up, down):  1.002E-04 0.000E+00

     total cpu time spent up to now is       22.9 secs

     total energy              =     -88.29433699 Ry
     Harris-Foulkes estimate   =     -88.29433699 Ry
     estimated scf accuracy    <          9.2E-10 Ry

     iteration # 16     ecut=    40.00 Ry     beta= 0.70
     Davidson diagonalization with overlap
     ethr =  9.22E-12,  avg # of iterations =  1.5

     negative rho (up, down):  1.002E-04 0.000E+00

     total cpu time spent up to now is       23.0 secs

     total energy              =     -88.29433699 Ry
     Harris-Foulkes estimate   =     -88.29433699 Ry
     estimated scf accuracy    <          2.6E-09 Ry

     iteration # 17     ecut=    40.00 Ry     beta= 0.70
     Davidson diagonalization with overlap
     ethr =  9.22E-12,  avg # of iterations =  2.0

     negative rho (up, down):  1.002E-04 0.000E+00

     total cpu time spent up to now is       23.2 secs

     End of self-consistent calculation

          k = 0.0000 0.0000 0.0000 (  1067 PWs)   bands (ev):

   -11.5329   2.5705   4.7422   4.7422   4.7422  15.8035  15.8035  15.8035
    17.4502

          k =-0.1436 0.1436-0.1436 (  1064 PWs)   bands (ev):

   -11.3997   1.7276   4.7016   4.7016   5.5116  14.2494  14.9379  14.9379
    17.6710

          k =-0.2872 0.2872-0.2872 (  1074 PWs)   bands (ev):

   -11.0529   0.3870   4.6123   4.6123   6.6538  12.1835  13.6443  13.6443
    17.6711

          k =-0.4308 0.4308-0.4308 (  1065 PWs)   bands (ev):

   -10.6611  -0.6978   4.5351   4.5351   7.5567  10.6894  12.7186  12.7186
    17.8751

          k = 0.5744-0.5744 0.5744 (  1068 PWs)   bands (ev):

   -10.4817  -1.1232   4.5061   4.5061   7.9664  10.0730  12.3897  12.3897
    18.0602

          k = 0.0000 0.2872 0.0000 (  1054 PWs)   bands (ev):

   -11.3566   1.6480   4.4917   4.4917   5.9481  13.6059  15.0785  15.0785
    16.0569

          k =-0.1436 0.4308-0.1436 (  1059 PWs)   bands (ev):

   -11.0838   0.7480   4.2851   4.3216   6.8449  11.9791  13.7670  14.3913
    16.4397

          k =-0.2872 0.5744-0.2872 (  1061 PWs)   bands (ev):

   -10.7064  -0.2520   4.0648   4.1997   7.6906  10.5817  12.8790  13.4648
    17.4174

          k = 0.7179-0.4308 0.7179 (  1074 PWs)   bands (ev):

   -10.4491  -0.8371   3.7610   4.2791   8.4695   9.5477  12.6595  12.7849
    18.4666

          k = 0.5744-0.2872 0.5744 (  1068 PWs)   bands (ev):

   -10.5070  -0.7217   3.6084   4.4805   8.5582   9.5960  12.5993  12.8184
    18.8589

          k = 0.4308-0.1436 0.4308 (  1067 PWs)   bands (ev):

   -10.8328   0.0112   3.7450   4.6911   7.6022  11.0557  13.0114  13.2356
    18.6101

          k = 0.2872 0.0000 0.2872 (  1055 PWs)   bands (ev):

   -11.1959   0.9843   4.1871   4.7854   6.4549  12.9210  13.9538  13.9921
    18.1508

          k = 0.0000 0.5744 0.0000 (  1062 PWs)   bands (ev):

   -10.9108   0.6930   3.9330   3.9330   6.8636  11.3649  14.2036  14.6929
    14.6929

          k =-0.1436 0.7179-0.1436 (  1058 PWs)   bands (ev):

   -10.6157   0.2696   3.4696   3.7435   6.6751  11.3073  13.1242  14.3358
    15.5047

          k = 0.8615-0.2872 0.8615 (  1076 PWs)   bands (ev):

   -10.3647  -0.0796   2.6691   3.8000   7.0486  11.0054  12.8615  13.6707
    16.7943

          k = 0.7179-0.1436 0.7179 (  1075 PWs)   bands (ev):

   -10.3279  -0.1867   2.2425   4.0817   7.9197  10.2675  12.8644  13.0920
    18.5919

          k = 0.5744 0.0000 0.5744 (  1065 PWs)   bands (ev):

   -10.5319  -0.1662   2.6817   4.4551   8.7206   9.6869  12.8264  12.8896
    20.3150

          k = 0.0000 0.8615-0.0000 (  1058 PWs)   bands (ev):

   -10.4355   0.4569   3.4303   3.4303   5.2020  12.2555  12.9946  14.7402
    14.7402

          k = 1.0051-0.1436 1.0051 (  1067 PWs)   bands (ev):

   -10.2714   0.5948   2.4084   3.3905   5.3299  12.4576  12.9082  14.4919
    15.1394

          k = 0.8615 0.0000 0.8615 (  1069 PWs)   bands (ev):

   -10.2274   0.8737   1.2066   3.6398   6.4560  11.7159  12.9807  13.8352
    16.4098

          k = 0.0000-1.1487 0.0000 (  1090 PWs)   bands (ev):

   -10.2300   0.6336   3.2356   3.2356   4.0422  12.5832  13.1437  14.8193
    14.8193

          k =-0.2872 0.5744 0.0000 (  1063 PWs)   bands (ev):

   -10.7970   0.2540   3.5241   4.2992   7.4972  10.9488  13.2518  13.6421
    16.8908

          k = 0.7179-0.4308 1.0051 (  1069 PWs)   bands (ev):

   -10.4830  -0.2085   2.9794   4.0001   8.0621  10.2228  12.8425  13.1826
    18.0932

          k = 0.5744-0.2872 0.8615 (  1072 PWs)   bands (ev):

   -10.3434  -0.4049   2.8072   3.8095   8.3257   9.8728  12.8283  13.0299
    19.3523

          k = 0.8615-0.2872 1.1487 (  1067 PWs)   bands (ev):

   -10.3857   0.3038   2.9425   3.1359   6.5413  11.7656  12.8187  13.7512
    16.2679

          k = 0.7179-0.1436 1.0051 (  1073 PWs)   bands (ev):

   -10.2459   0.5020   1.9534   2.9795   7.2089  11.4622  12.8686  13.2833
    17.5999

          k = 0.5744 0.0000 0.8615 (  1075 PWs)   bands (ev):

   -10.2884   0.2316   1.9800   3.3946   7.9101  10.6491  12.8371  13.1487
    19.3575

          k =-0.2872-1.1487 0.0000 (  1070 PWs)   bands (ev):

   -10.2134   0.9235   1.9967   2.7207   5.9597  12.6486  13.0531  13.3749
    16.1385

          k =-0.5744-1.1487 0.0000 (  1084 PWs)   bands (ev):

   -10.1966   1.4382   1.7191   1.7191   7.5937  11.6917  12.8408  12.8408
    19.4735

     the Fermi energy is     9.1227 ev

!    total energy              =     -88.29433699 Ry
     Harris-Foulkes estimate   =     -88.29433699 Ry
     estimated scf accuracy    <          3.4E-12 Ry

     total all-electron energy =       -88.294337 Ry

     The total energy is the sum of the following terms:

     one-electron contribution =      -6.17067847 Ry
     hartree contribution      =       9.77956176 Ry
     xc contribution           =      -9.51754030 Ry
     ewald contribution        =     -33.39527798 Ry
     one-center paw contrib.   =     -48.99040200 Ry
     smearing contrib. (-TS)   =      -0.00000000 Ry

     convergence has been achieved in  17 iterations

     negative rho (up, down):  1.002E-04 0.000E+00

     Forces acting on atoms (cartesian axes, Ry/au):

     atom    1 type  1   force =    -0.00000000   -0.00000000   -0.00000000
     atom    2 type  2   force =     0.00000000    0.00000000    0.00000000

     Total force =     0.000000     Total SCF correction =     0.000000


     Computing stress (Cartesian axis) and pressure


     negative rho (up, down):  1.002E-04 0.000E+00
          total   stress  (Ry/bohr**3)                   (kbar)     P=   -0.95
  -0.00000643   0.00000000   0.00000000         -0.95      0.00      0.00
   0.00000000  -0.00000643  -0.00000000          0.00     -0.95     -0.00
   0.00000000  -0.00000000  -0.00000643          0.00     -0.00     -0.95


     number of scf cycles    =   5
     number of bfgs steps    =   4

     enthalpy old            =     -88.2941861381 Ry
     enthalpy new            =     -88.2943369928 Ry

     CASE: enthalpy_new < enthalpy_old

     new trust radius        =       0.0006039246 bohr
     new conv_thr            =            1.0E-10 Ry

     new unit-cell volume =    164.81745 a.u.^3 (    24.42343 Ang^3 )
     density =      2.99729 g/cm^3

CELL_PARAMETERS (alat= 10.00000000)
  -0.435168785  -0.000000000   0.435168785
   0.000000000   0.435168785   0.435168785
  -0.435168785   0.435168785  -0.000000000

ATOMIC_POSITIONS (alat)
O       -0.000000000  -0.000000000   0.000000000
Si       0.435168785   0.435168785   0.435168785



     Writing output data file relax.save/
     NEW-OLD atomic charge density approx. for the potential

     negative rho (up, down):  1.000E-04 0.000E+00
     extrapolated charge    9.99294, renormalised to   10.00000

     total cpu time spent up to now is       24.4 secs

     Self-consistent Calculation

     iteration #  1     ecut=    40.00 Ry     beta= 0.70
     Davidson diagonalization with overlap
     ethr =  1.00E-06,  avg # of iterations =  2.0

     negative rho (up, down):  1.003E-04 0.000E+00

     total cpu time spent up to now is       24.5 secs

     total energy              =     -88.29429319 Ry
     Harris-Foulkes estimate   =     -88.29911132 Ry
     estimated scf accuracy    <       0.00003764 Ry

     iteration #  2     ecut=    40.00 Ry     beta= 0.70
     Davidson diagonalization with overlap
     ethr =  3.76E-07,  avg # of iterations =  2.4

     negative rho (up, down):  1.003E-04 0.000E+00

     total cpu time spent up to now is       24.7 secs

     total energy              =     -88.29431388 Ry
     Harris-Foulkes estimate   =     -88.29441134 Ry
     estimated scf accuracy    <       0.00033726 Ry

     iteration #  3     ecut=    40.00 Ry     beta= 0.70
     Davidson diagonalization with overlap
     ethr =  3.76E-07,  avg # of iterations =  2.0

     negative rho (up, down):  1.004E-04 0.000E+00

     total cpu time spent up to now is       24.9 secs

     total energy              =     -88.29433504 Ry
     Harris-Foulkes estimate   =     -88.29434308 Ry
     estimated scf accuracy    <       0.00002635 Ry

     iteration #  4     ecut=    40.00 Ry     beta= 0.70
     Davidson diagonalization with overlap
     ethr =  2.63E-07,  avg # of iterations =  1.0

     negative rho (up, down):  1.004E-04 0.000E+00

     total cpu time spent up to now is       25.1 secs

     total energy              =     -88.29433716 Ry
     Harris-Foulkes estimate   =     -88.29433761 Ry
     estimated scf accuracy    <       0.00000153 Ry

     iteration #  5     ecut=    40.00 Ry     beta= 0.70
     Davidson diagonalization with overlap
     ethr =  1.53E-08,  avg # of iterations =  1.8

     negative rho (up, down):  1.004E-04 0.000E+00

     total cpu time spent up to now is       25.3 secs

     total energy              =     -88.29433736 Ry
     Harris-Foulkes estimate   =     -88.29433738 Ry
     estimated scf accuracy    <       0.00000007 Ry

     iteration #  6     ecut=    40.00 Ry     beta= 0.70
     Davidson diagonalization with overlap
     ethr =  6.81E-10,  avg # of iterations =  1.3

     negative rho (up, down):  1.003E-04 0.000E+00

     total cpu time spent up to now is       25.5 secs

     total energy              =     -88.29433737 Ry
     Harris-Foulkes estimate   =     -88.29433737 Ry
     estimated scf accuracy    <          4.9E-10 Ry

     iteration #  7     ecut=    40.00 Ry     beta= 0.70
     Davidson diagonalization with overlap
     ethr =  4.95E-12,  avg # of iterations =  2.8

     negative rho (up, down):  1.003E-04 0.000E+00

     total cpu time spent up to now is       25.7 secs

     total energy              =     -88.29433737 Ry
     Harris-Foulkes estimate   =     -88.29433737 Ry
     estimated scf accuracy    <          7.6E-10 Ry

     iteration #  8     ecut=    40.00 Ry     beta= 0.70
     Davidson diagonalization with overlap
     ethr =  4.95E-12,  avg # of iterations =  1.0

     negative rho (up, down):  1.003E-04 0.000E+00

     total cpu time spent up to now is       25.9 secs

     total energy              =     -88.29433737 Ry
     Harris-Foulkes estimate   =     -88.29433737 Ry
     estimated scf accuracy    <          1.3E-09 Ry

     iteration #  9     ecut=    40.00 Ry     beta= 0.70
     Davidson diagonalization with overlap
     ethr =  4.95E-12,  avg # of iterations =  2.0

     negative rho (up, down):  1.003E-04 0.000E+00

     total cpu time spent up to now is       26.1 secs

     End of self-consistent calculation

          k = 0.0000 0.0000 0.0000 (  1067 PWs)   bands (ev):

   -11.5296   2.5820   4.7486   4.7486   4.7486  15.8189  15.8189  15.8189
    17.4600

          k =-0.1436 0.1436-0.1436 (  1064 PWs)   bands (ev):

   -11.3963   1.7368   4.7079   4.7079   5.5202  14.2625  14.9518  14.9518
    17.6825

          k =-0.2872 0.2872-0.2872 (  1074 PWs)   bands (ev):

   -11.0490   0.3938   4.6184   4.6184   6.6638  12.1959  13.6571  13.6571
    17.6829

          k =-0.4309 0.4309-0.4309 (  1065 PWs)   bands (ev):

   -10.6565  -0.6926   4.5410   4.5410   7.5669  10.7023  12.7307  12.7307
    17.8869

          k = 0.5745-0.5745 0.5745 (  1068 PWs)   bands (ev):

   -10.4768  -1.1188   4.5120   4.5120   7.9761  10.0866  12.4016  12.4016
    18.0722

          k = 0.0000 0.2872 0.0000 (  1054 PWs)   bands (ev):

   -11.3531   1.6570   4.4978   4.4978   5.9569  13.6193  15.0923  15.0923
    16.0658

          k =-0.1436 0.4309-0.1436 (  1059 PWs)   bands (ev):

   -11.0799   0.7553   4.2910   4.3276   6.8549  11.9915  13.7787  14.4047
    16.4507

          k =-0.2872 0.5745-0.2872 (  1061 PWs)   bands (ev):

   -10.7019  -0.2464   4.0706   4.2055   7.7014  10.5934  12.8908  13.4775
    17.4291

          k = 0.7181-0.4309 0.7181 (  1074 PWs)   bands (ev):

   -10.4442  -0.8325   3.7665   4.2849   8.4804   9.5596  12.6716  12.7971
    18.4790

          k = 0.5745-0.2872 0.5745 (  1068 PWs)   bands (ev):

   -10.5021  -0.7169   3.6138   4.4863   8.5689   9.6082  12.6114  12.8303
    18.8718

          k = 0.4309-0.1436 0.4309 (  1067 PWs)   bands (ev):

   -10.8285   0.0173   3.7505   4.6971   7.6128  11.0680  13.0238  13.2471
    18.6231

          k = 0.2872 0.0000 0.2872 (  1055 PWs)   bands (ev):

   -11.1922   0.9921   4.1930   4.7916   6.4646  12.9341  13.9670  14.0037
    18.1638

          k = 0.0000 0.5745 0.0000 (  1062 PWs)   bands (ev):

   -10.9066   0.6999   3.9388   3.9388   6.8741  11.3767  14.2115  14.7066
    14.7066

          k =-0.1436 0.7181-0.1436 (  1058 PWs)   bands (ev):

   -10.6111   0.2753   3.4750   3.7491   6.6860  11.3189  13.1343  14.3494
    15.5167

          k = 0.8617-0.2872 0.8617 (  1076 PWs)   bands (ev):

   -10.3596  -0.0747   2.6740   3.8055   7.0598  11.0166  12.8732  13.6837
    16.8059

[...]


     Computing stress (Cartesian axis) and pressure


     negative rho (up, down):  1.003E-04 0.000E+00
          total   stress  (Ry/bohr**3)                   (kbar)     P=   -0.00
  -0.00000000   0.00000000   0.00000000         -0.00      0.00      0.00
   0.00000000  -0.00000000  -0.00000000          0.00     -0.00     -0.00
   0.00000000  -0.00000000  -0.00000000          0.00     -0.00     -0.00


     bfgs converged in   6 scf cycles and   5 bfgs steps
     (criteria: energy <  1.0E-04 Ry, force <  1.0E-03Ry/Bohr, cell <  5.0E-01kbar)

     End of BFGS Geometry Optimization

     Final enthalpy =     -88.2943373703 Ry
Begin final coordinates
     new unit-cell volume =    164.81745 a.u.^3 (    24.42343 Ang^3 )
     density =      2.99729 g/cm^3

CELL_PARAMETERS (alat= 10.00000000)
  -0.435168785  -0.000000000   0.435168785
   0.000000000   0.435168785   0.435168785
  -0.435168785   0.435168785  -0.000000000

ATOMIC_POSITIONS (alat)
O       -0.000000000  -0.000000000   0.000000000
Si       0.435168785   0.435168785   0.435168785
End final coordinates



     Writing output data file relax.save/

     A final scf calculation at the relaxed structure.
     The G-vectors are recalculated for the final unit cell
     Results may differ from those at the preceding step.
 
     Parallelization info
     --------------------
     sticks:   dense  smooth     PW     G-vecs:    dense   smooth      PW
     Min         127     105     34                 1948     1399     266
     Max         128     106     35                 1951     1402     267
     Sum         511     421    139                 7799     5601    1067
 


     bravais-lattice index     =            2
     lattice parameter (alat)  =      10.0000  a.u.
     unit-cell volume          =     164.8175 (a.u.)^3
     number of atoms/cell      =            2
     number of atomic types    =            2
     number of electrons       =        10.00
     number of Kohn-Sham states=            9
     kinetic-energy cutoff     =      40.0000  Ry
     charge density cutoff     =     200.0000  Ry
     convergence threshold     =      1.0E-10
     mixing beta               =       0.7000
     number of iterations used =            8  plain     mixing
     Exchange-correlation      = SLA PW PBX PBC ( 1  4  3  4 0 0)

     celldm(1)=  10.000000  celldm(2)=   0.000000  celldm(3)=   0.000000
     celldm(4)=   0.000000  celldm(5)=   0.000000  celldm(6)=   0.000000

     crystal axes: (cart. coord. in units of alat)
               a(1) = (  -0.435169  -0.000000   0.435169 )  
               a(2) = (   0.000000   0.435169   0.435169 )  
               a(3) = (  -0.435169   0.435169  -0.000000 )  

     reciprocal axes: (cart. coord. in units 2 pi/alat)
               b(1) = ( -1.148979 -1.148979  1.148979 )  
               b(2) = (  1.148979  1.148979  1.148979 )  
               b(3) = ( -1.148979  1.148979 -1.148979 )  


     PseudoPot. # 1 for O  read from file:
     ./O.GGA-PBE-paw.UPF
     MD5 check sum: 7818fb177f83e969bd9649bd55229eb7
     Pseudo is Projector augmented-wave + core cor, Zval =  6.0
     Generated using ATOMPAW code
     Shape of augmentation charge: SINC**2
     Using radial grid of 2342 points,  4 beta functions with: 
                l(1) =   0
                l(2) =   0
                l(3) =   1
                l(4) =   1
     Q(r) pseudized with 0 coefficients 


     PseudoPot. # 2 for Si read from file:
     ./Si.GGA-PBE-paw.UPF
     MD5 check sum: 971737f46324357c807e9d55c2cc26bc
     Pseudo is Projector augmented-wave + core cor, Zval =  4.0
     Generated using ATOMPAW code
     Shape of augmentation charge: SINC**2
     Using radial grid of 2342 points,  4 beta functions with: 
                l(1) =   0
                l(2) =   0
                l(3) =   1
                l(4) =   1
     Q(r) pseudized with 0 coefficients 


     atomic species   valence    mass     pseudopotential
        O              6.00    15.99900     O ( 1.00)
        Si             4.00    28.08550     Si( 1.00)

     48 Sym. Ops., with inversion, found



   Cartesian axes

     site n.     atom                  positions (alat units)
         1           O   tau(   1) = (  -0.0000000  -0.0000000   0.0000000  )
         2           Si  tau(   2) = (   0.4351688   0.4351688   0.4351688  )

     number of k points=    29  Fermi-Dirac smearing, width (Ry)=  0.0020
                       cart. coord. in units 2pi/alat
        k(    1) = (   0.0000000   0.0000000   0.0000000), wk =   0.0039062
        k(    2) = (  -0.1436224   0.1436224  -0.1436224), wk =   0.0312500
        k(    3) = (  -0.2872449   0.2872449  -0.2872449), wk =   0.0312500
        k(    4) = (  -0.4308673   0.4308673  -0.4308673), wk =   0.0312500
        k(    5) = (   0.5744897  -0.5744897   0.5744897), wk =   0.0156250
        k(    6) = (   0.0000000   0.2872449   0.0000000), wk =   0.0234375
        k(    7) = (  -0.1436224   0.4308673  -0.1436224), wk =   0.0937500
        k(    8) = (  -0.2872449   0.5744897  -0.2872449), wk =   0.0937500
        k(    9) = (   0.7181122  -0.4308673   0.7181122), wk =   0.0937500
        k(   10) = (   0.5744897  -0.2872449   0.5744897), wk =   0.0937500
        k(   11) = (   0.4308673  -0.1436224   0.4308673), wk =   0.0937500
        k(   12) = (   0.2872449   0.0000000   0.2872449), wk =   0.0468750
        k(   13) = (   0.0000000   0.5744897   0.0000000), wk =   0.0234375
        k(   14) = (  -0.1436224   0.7181122  -0.1436224), wk =   0.0937500
        k(   15) = (   0.8617346  -0.2872449   0.8617346), wk =   0.0937500
        k(   16) = (   0.7181122  -0.1436224   0.7181122), wk =   0.0937500
        k(   17) = (   0.5744897   0.0000000   0.5744897), wk =   0.0468750
        k(   18) = (   0.0000000   0.8617346  -0.0000000), wk =   0.0234375
        k(   19) = (   1.0053570  -0.1436224   1.0053570), wk =   0.0937500
        k(   20) = (   0.8617346   0.0000000   0.8617346), wk =   0.0468750
        k(   21) = (   0.0000000  -1.1489795   0.0000000), wk =   0.0117188
        k(   22) = (  -0.2872449   0.5744897   0.0000000), wk =   0.0937500
        k(   23) = (   0.7181122  -0.4308673   1.0053570), wk =   0.1875000
        k(   24) = (   0.5744897  -0.2872449   0.8617346), wk =   0.0937500
        k(   25) = (   0.8617346  -0.2872449   1.1489795), wk =   0.0937500
        k(   26) = (   0.7181122  -0.1436224   1.0053570), wk =   0.1875000
        k(   27) = (   0.5744897   0.0000000   0.8617346), wk =   0.0937500
        k(   28) = (  -0.2872449  -1.1489795   0.0000000), wk =   0.0468750
        k(   29) = (  -0.5744897  -1.1489795   0.0000000), wk =   0.0234375

     Dense  grid:     7799 G-vectors     FFT dimensions: (  27,  27,  27)

     Smooth grid:     5601 G-vectors     FFT dimensions: (  25,  25,  25)

     Estimated max dynamical RAM per process >       5.58 MB

     Estimated total dynamical RAM >      22.32 MB

     Initial potential from superposition of free atoms

     starting charge    9.99937, renormalised to   10.00000

     negative rho (up, down):  4.086E-05 0.000E+00
     Starting wfcs are   16 randomized atomic wfcs
     Checking if some PAW data can be deallocated... 

     total cpu time spent up to now is       27.6 secs

     Self-consistent Calculation

     iteration #  1     ecut=    40.00 Ry     beta= 0.70
     Davidson diagonalization with overlap
     ethr =  1.00E-06,  avg # of iterations =  9.6

     negative rho (up, down):  6.847E-05 0.000E+00

     total cpu time spent up to now is       27.9 secs

     total energy              =     -88.10450757 Ry
     Harris-Foulkes estimate   =     -88.29948086 Ry
     estimated scf accuracy    <       0.30419291 Ry

     iteration #  2     ecut=    40.00 Ry     beta= 0.70
     Davidson diagonalization with overlap
     ethr =  3.04E-03,  avg # of iterations =  2.0

     negative rho (up, down):  7.274E-05 0.000E+00

     total cpu time spent up to now is       28.1 secs

     total energy              =     -88.09340229 Ry
     Harris-Foulkes estimate   =     -88.47854935 Ry
     estimated scf accuracy    <       0.98411601 Ry

     iteration #  3     ecut=    40.00 Ry     beta= 0.70
     Davidson diagonalization with overlap
     ethr =  3.04E-03,  avg # of iterations =  2.0

     negative rho (up, down):  8.466E-05 0.000E+00

     total cpu time spent up to now is       28.2 secs

     total energy              =     -88.27406359 Ry
     Harris-Foulkes estimate   =     -88.27331119 Ry
     estimated scf accuracy    <       0.00423575 Ry

     iteration #  4     ecut=    40.00 Ry     beta= 0.70
     Davidson diagonalization with overlap
     ethr =  4.24E-05,  avg # of iterations =  2.0

     negative rho (up, down):  7.975E-05 0.000E+00

     total cpu time spent up to now is       28.4 secs

     total energy              =     -88.27562487 Ry
     Harris-Foulkes estimate   =     -88.27577731 Ry
     estimated scf accuracy    <       0.00118940 Ry

     iteration #  5     ecut=    40.00 Ry     beta= 0.70
     Davidson diagonalization with overlap
     ethr =  1.19E-05,  avg # of iterations =  1.0

     negative rho (up, down):  7.865E-05 0.000E+00

     total cpu time spent up to now is       28.5 secs

     total energy              =     -88.27574505 Ry
     Harris-Foulkes estimate   =     -88.27575676 Ry
     estimated scf accuracy    <       0.00003854 Ry

     iteration #  6     ecut=    40.00 Ry     beta= 0.70
     Davidson diagonalization with overlap
     ethr =  3.85E-07,  avg # of iterations =  2.0

     negative rho (up, down):  7.838E-05 0.000E+00

     total cpu time spent up to now is       28.7 secs

     total energy              =     -88.27575353 Ry
     Harris-Foulkes estimate   =     -88.27575352 Ry
     estimated scf accuracy    <       0.00000008 Ry

     iteration #  7     ecut=    40.00 Ry     beta= 0.70
     Davidson diagonalization with overlap
     ethr =  8.36E-10,  avg # of iterations =  2.3

     negative rho (up, down):  7.778E-05 0.000E+00

     total cpu time spent up to now is       28.9 secs

     total energy              =     -88.27575357 Ry
     Harris-Foulkes estimate   =     -88.27575357 Ry
     estimated scf accuracy    <       0.00000002 Ry

     iteration #  8     ecut=    40.00 Ry     beta= 0.70
     Davidson diagonalization with overlap
     ethr =  1.94E-10,  avg # of iterations =  1.8

     negative rho (up, down):  7.778E-05 0.000E+00

     total cpu time spent up to now is       29.0 secs

     total energy              =     -88.27575357 Ry
     Harris-Foulkes estimate   =     -88.27575357 Ry
     estimated scf accuracy    <          2.0E-10 Ry

     iteration #  9     ecut=    40.00 Ry     beta= 0.70
     Davidson diagonalization with overlap
     ethr =  2.05E-12,  avg # of iterations =  2.1

     negative rho (up, down):  7.779E-05 0.000E+00

     total cpu time spent up to now is       29.2 secs

     total energy              =     -88.27575357 Ry
     Harris-Foulkes estimate   =     -88.27575357 Ry
     estimated scf accuracy    <          1.1E-10 Ry

     iteration # 10     ecut=    40.00 Ry     beta= 0.70
     Davidson diagonalization with overlap
     ethr =  1.13E-12,  avg # of iterations =  1.3

     negative rho (up, down):  7.779E-05 0.000E+00

     total cpu time spent up to now is       29.3 secs

     End of self-consistent calculation

          k = 0.0000 0.0000 0.0000 (   725 PWs)   bands (ev):

   -11.5830   2.5574   4.7245   4.7245   4.7245  15.8248  15.8248  15.8248
    17.4686

          k =-0.1436 0.1436-0.1436 (   706 PWs)   bands (ev):

   -11.4507   1.7169   4.6886   4.6886   5.5108  14.2743  14.9581  14.9581
    17.6897

          k =-0.2872 0.2872-0.2872 (   703 PWs)   bands (ev):

   -11.1067   0.3782   4.6045   4.6045   6.6515  12.2063  13.6621  13.6621
    17.6904

          k =-0.4309 0.4309-0.4309 (   709 PWs)   bands (ev):

   -10.7187  -0.7040   4.5267   4.5267   7.5547  10.7065  12.7343  12.7343
    17.8973

          k = 0.5745-0.5745 0.5745 (   700 PWs)   bands (ev):

   -10.5412  -1.1271   4.5020   4.5020   7.9655  10.0906  12.4048  12.4048
    18.0849

          k = 0.0000 0.2872 0.0000 (   697 PWs)   bands (ev):

   -11.4078   1.6365   4.4851   4.4851   5.9476  13.6221  15.1047  15.1047
    16.0738

          k =-0.1436 0.4309-0.1436 (   697 PWs)   bands (ev):

   -11.1372   0.7383   4.2781   4.3178   6.8459  11.9938  13.7918  14.4156
    16.4582

          k =-0.2872 0.5745-0.2872 (   703 PWs)   bands (ev):

   -10.7633  -0.2588   4.0553   4.1922   7.6935  10.5953  12.9013  13.4852
    17.4358

          k = 0.7181-0.4309 0.7181 (   707 PWs)   bands (ev):

   -10.5089  -0.8414   3.7515   4.2679   8.4738   9.5602  12.6803  12.8020
    18.4889

          k = 0.5745-0.2872 0.5745 (   708 PWs)   bands (ev):

   -10.5661  -0.7268   3.5971   4.4718   8.5596   9.6085  12.6154  12.8413
    18.8805

          k = 0.4309-0.1436 0.4309 (   705 PWs)   bands (ev):

   -10.8886   0.0027   3.7369   4.6844   7.6009  11.0704  13.0269  13.2607
    18.6291

          k = 0.2872 0.0000 0.2872 (   694 PWs)   bands (ev):

   -11.2484   0.9755   4.1834   4.7755   6.4592  12.9407  13.9704  14.0196
    18.1711

          k = 0.0000 0.5745 0.0000 (   713 PWs)   bands (ev):

   -10.9658   0.6810   3.9219   3.9219   6.8607  11.3771  14.2187  14.7196
    14.7196

          k =-0.1436 0.7181-0.1436 (   703 PWs)   bands (ev):

   -10.6734   0.2611   3.4617   3.7345   6.6798  11.3214  13.1487  14.3633
    15.5266

          k = 0.8617-0.2872 0.8617 (   703 PWs)   bands (ev):

   -10.4251  -0.0853   2.6610   3.7915   7.0559  11.0204  12.8864  13.6945
    16.8124

          k = 0.7181-0.1436 0.7181 (   702 PWs)   bands (ev):

   -10.3888  -0.1910   2.2339   4.0737   7.9302  10.2771  12.8921  13.1123
    18.6132

          k = 0.5745 0.0000 0.5745 (   708 PWs)   bands (ev):

   -10.5906  -0.1722   2.6710   4.4443   8.7305   9.6928  12.8434  12.9159
    20.3476

          k = 0.0000 0.8617-0.0000 (   701 PWs)   bands (ev):

   -10.4949   0.4489   3.4215   3.4215   5.2097  12.2801  13.0095  14.7729
    14.7729

          k = 1.0054-0.1436 1.0054 (   706 PWs)   bands (ev):

   -10.3326   0.5857   2.4030   3.3813   5.3355  12.4800  12.9311  14.5221
    15.1613

          k = 0.8617 0.0000 0.8617 (   706 PWs)   bands (ev):

   -10.2892   0.8697   1.1955   3.6317   6.4635  11.7327  13.0045  13.8611
    16.4246

          k = 0.0000-1.1490 0.0000 (   692 PWs)   bands (ev):

   -10.2915   0.6245   3.2328   3.2328   4.0525  12.5979  13.1757  14.8617
    14.8617

          k =-0.2872 0.5745 0.0000 (   700 PWs)   bands (ev):

   -10.8530   0.2451   3.5180   4.2947   7.4986  10.9617  13.2792  13.6625
    16.9119

          k = 0.7181-0.4309 1.0054 (   700 PWs)   bands (ev):

   -10.5422  -0.2139   2.9720   3.9923   8.0720  10.2327  12.8679  13.2055
    18.1134

          k = 0.5745-0.2872 0.8617 (   702 PWs)   bands (ev):

   -10.4041  -0.4091   2.7987   3.8020   8.3379   9.8791  12.8539  13.0515
    19.3756

          k = 0.8617-0.2872 1.1490 (   712 PWs)   bands (ev):

   -10.4458   0.2961   2.9304   3.1268   6.5461  11.7800  12.8408  13.7747
    16.2894

          k = 0.7181-0.1436 1.0054 (   709 PWs)   bands (ev):

   -10.3075   0.4964   1.9439   2.9701   7.2154  11.4741  12.8942  13.3069
    17.6189

          k = 0.5745 0.0000 0.8617 (   701 PWs)   bands (ev):

   -10.3496   0.2277   1.9718   3.3865   7.9223  10.6567  12.8687  13.1719
    19.3780

          k =-0.2872-1.1490 0.0000 (   708 PWs)   bands (ev):

   -10.2753   0.9124   1.9958   2.7090   5.9665  12.6700  13.0766  13.3963
    16.1623

          k =-0.5745-1.1490 0.0000 (   700 PWs)   bands (ev):

   -10.2587   1.4376   1.7099   1.7099   7.6064  11.6994  12.8706  12.8706
    19.4958

     the Fermi energy is     9.1338 ev

!    total energy              =     -88.27575357 Ry
     Harris-Foulkes estimate   =     -88.27575357 Ry
     estimated scf accuracy    <          2.2E-12 Ry

     total all-electron energy =       -88.275754 Ry

     The total energy is the sum of the following terms:

     one-electron contribution =      -6.11945719 Ry
     hartree contribution      =       9.75179563 Ry
     xc contribution           =      -9.51444833 Ry
     ewald contribution        =     -33.40313190 Ry
     one-center paw contrib.   =     -48.99051177 Ry
     smearing contrib. (-TS)   =      -0.00000000 Ry

     convergence has been achieved in  10 iterations

     negative rho (up, down):  7.779E-05 0.000E+00

     Forces acting on atoms (cartesian axes, Ry/au):

     atom    1 type  1   force =     0.00000000    0.00000000    0.00000000
     atom    2 type  2   force =    -0.00000000   -0.00000000   -0.00000000

     Total force =     0.000000     Total SCF correction =     0.000000


     Computing stress (Cartesian axis) and pressure


     negative rho (up, down):  7.779E-05 0.000E+00
          total   stress  (Ry/bohr**3)                   (kbar)     P=  -95.20
  -0.00064715  -0.00000000   0.00000000        -95.20     -0.00      0.00
  -0.00000000  -0.00064715  -0.00000000         -0.00    -95.20     -0.00
   0.00000000  -0.00000000  -0.00064715          0.00     -0.00    -95.20


     Writing output data file relax.save/
 
     init_run     :      1.52s CPU      1.54s WALL (       2 calls)
     electrons    :     17.57s CPU     18.29s WALL (       7 calls)
     update_pot   :      2.30s CPU      2.30s WALL (       5 calls)
     forces       :      1.74s CPU      1.75s WALL (       7 calls)
     stress       :      3.24s CPU      3.25s WALL (       7 calls)

     Called by init_run:
     wfcinit      :      0.15s CPU      0.15s WALL (       2 calls)
     potinit      :      0.25s CPU      0.26s WALL (       2 calls)
     hinit0       :      1.10s CPU      1.11s WALL (       2 calls)

     Called by electrons:
     c_bands      :     10.39s CPU     10.97s WALL (      96 calls)
     sum_band     :      2.33s CPU      2.42s WALL (      96 calls)
     v_of_rho     :      0.32s CPU      0.33s WALL (     103 calls)
     newd         :      0.20s CPU      0.20s WALL (     103 calls)
     PAW_pot      :      4.72s CPU      4.73s WALL (     108 calls)
     mix_rho      :      0.06s CPU      0.06s WALL (      96 calls)

     Called by c_bands:
     init_us_2    :      0.25s CPU      0.26s WALL (    6177 calls)
     cegterg      :      9.88s CPU     10.43s WALL (    2784 calls)

     Called by sum_band:
     sum_band:bec :      0.01s CPU      0.01s WALL (    2929 calls)
     addusdens    :      0.16s CPU      0.16s WALL (      96 calls)

     Called by *egterg:
     h_psi        :      8.17s CPU      8.63s WALL (    8257 calls)
     s_psi        :      0.10s CPU      0.10s WALL (    8257 calls)
     g_psi        :      0.03s CPU      0.03s WALL (    5415 calls)
     cdiaghg      :      0.81s CPU      0.85s WALL (    8054 calls)

     Called by h_psi:
     h_psi:pot    :      8.14s CPU      8.60s WALL (    8257 calls)
     h_psi:calbec :      0.26s CPU      0.28s WALL (    8257 calls)
     vloc_psi     :      7.74s CPU      8.18s WALL (    8257 calls)
     add_vuspsi   :      0.10s CPU      0.11s WALL (    8257 calls)

     General routines
     calbec       :      0.43s CPU      0.45s WALL (   12201 calls)
     fft          :      0.84s CPU      0.84s WALL (    1512 calls)
     ffts         :      0.02s CPU      0.02s WALL (     199 calls)
     fftw         :      8.74s CPU      9.21s WALL (  149110 calls)
     interpolate  :      0.03s CPU      0.03s WALL (     103 calls)
 
     Parallel routines
     fft_scatt_xy :      1.00s CPU      1.05s WALL (  150821 calls)
     fft_scatt_yz :      5.47s CPU      5.72s WALL (  150821 calls)
 
     PWSCF        :    28.62s CPU        29.47s WALL

 
   This run was terminated on:  17: 5:43  20May2019            

=------------------------------------------------------------------------------=
   JOB DONE.
=------------------------------------------------------------------------------=
