{
    "directories":
        {
            "elem_template_dir": "/home/szymansk/Elem_Templates",
            "cmpd_template_dir": "/home/szymansk/Optimization_Sets/Cd/Input"
        },
    "compounds": [
        {
            "formula": "Cd",
            "lattice_type": "BCC",
            "phonon_frequency": [0.0,0.0,0.0,2.38,2.38,2.38]
        },
        {
            "formula": "CdO",
            "lattice_type": "RS",
            "lattice_constant": 4.774
        },
        {
            "formula": "CdS",
            "lattice_type": "ZB",
            "eos": [26.10024, 53.67571, 4.585]
        },
        {
            "formula": "CdTe",
            "lattice_type": "ZB",
            "lattice_constant": 6.624,
            "band_gap": 0.520
        },
        {
            "formula": "SrCdSi",
            "lattice_type": "HH",
            "lattice_constant": 6.966
        }
    ]
}
