===== VARIABLES =====
EXE_PATH = /scr/szymansk/2019-3/qe-bin/bin/pw.x
tpp = 4
Parallel keywords = -nimage 1
MPIRUN_EXE = orterun
PATH = /scr/szymansk/2019-3/mmshare-v4.7/lib/Linux-x86_64/openmpi/bin:/scr/szymansk/2019-3/internal/bin:/scr/szymansk/2019-3/mmshare-v4.7/bin/Linux-x86_64:/home/szymansk/bin:/scr/szymansk/dakota/bin:/scr/szymansk/atompaw-4.1.0.5/src/:/usr/lib64/qt-3.3/bin:/usr/local/bin:/usr/local/sbin:/usr/bin:/usr/sbin:/bin:/sbin
LD_LIBRARY_PATH = /scr/szymansk/2019-3/mmshare-v4.7/lib/Linux-x86_64/openmpi/lib:/scr/szymansk/2019-3/internal/lib/ssl:/scr/szymansk/2019-3/internal/lib:/scr/szymansk/2019-3/mmshare-v4.7/lib/Linux-x86_64:/scr/szymansk/2019-3/internal/lib/python3.6/site-packages:/scr/szymansk/dakota/bin:/software/lib/Linux-x86_64/ifort_2017.1.132/mkl/lib/intel64
===== END VARIABLES =====
Invoking: exe_cmd () 
{ 
    "$MPIRUN_EXE" -np $tpp "$EXE_PATH" -in $input_file "${P_KEYWORDS[@]}"
}

     Program PWSCF v.6.3MaX starts on 13Jun2019 at 12:18: 1 

     This program is part of the open-source Quantum ESPRESSO suite
     for quantum simulation of materials; please cite
         "P. Giannozzi et al., J. Phys.:Condens. Matter 21 395502 (2009);
         "P. Giannozzi et al., J. Phys.:Condens. Matter 29 465901 (2017);
          URL http://www.quantum-espresso.org", 
     in publications or presentations arising from this work. More details at
     http://www.quantum-espresso.org/quote

     Parallel version (MPI), running on     4 processors

     MPI processes distributed on     1 nodes
     R & G space division:  proc/nbgrp/npool/nimage =       4
     Reading input from ZnO.ZB.relax.in

     Current dimensions of program PWSCF are:
     Max number of different atomic species (ntypx) = 10
     Max number of k-points (npk) =  40000
     Max angular momentum in pseudopotentials (lmaxx) =  3

     Subspace diagonalization in iterative solution of the eigenvalue problem:
     a serial algorithm will be used

 
     Parallelization info
     --------------------
     sticks:   dense  smooth     PW     G-vecs:    dense   smooth      PW
     Min         159     127     40                 2621     1907     340
     Max         160     128     41                 2624     1909     342
     Sum         637     511    163                10489     7631    1363
 


     bravais-lattice index     =            2
     lattice parameter (alat)  =       9.6000  a.u.
     unit-cell volume          =     221.1840 (a.u.)^3
     number of atoms/cell      =            2
     number of atomic types    =            2
     number of electrons       =        26.00
     number of Kohn-Sham states=           17
     kinetic-energy cutoff     =      40.0000  Ry
     charge density cutoff     =     200.0000  Ry
     convergence threshold     =      1.0E-08
     mixing beta               =       0.7000
     number of iterations used =            8  plain     mixing
     Exchange-correlation      = SLA  PW   PBE  PBE ( 1  4  3  4 0 0)
     nstep                     =           50


     celldm(1)=   9.600000  celldm(2)=   0.000000  celldm(3)=   0.000000
     celldm(4)=   0.000000  celldm(5)=   0.000000  celldm(6)=   0.000000

     crystal axes: (cart. coord. in units of alat)
               a(1) = (  -0.500000   0.000000   0.500000 )  
               a(2) = (   0.000000   0.500000   0.500000 )  
               a(3) = (  -0.500000   0.500000   0.000000 )  

     reciprocal axes: (cart. coord. in units 2 pi/alat)
               b(1) = ( -1.000000 -1.000000  1.000000 )  
               b(2) = (  1.000000  1.000000  1.000000 )  
               b(3) = ( -1.000000  1.000000 -1.000000 )  


     PseudoPot. # 1 for Zn read from file:
     ./Zn.GGA-PBE-paw.UPF
     MD5 check sum: df62231357ef9e81f77b2b3087fa5675
     Pseudo is Ultrasoft, Zval = 20.0
     Generated by new atomic code, or converted to UPF format
     Using radial grid of  943 points,  6 beta functions with: 
                l(1) =   0
                l(2) =   0
                l(3) =   1
                l(4) =   1
                l(5) =   2
                l(6) =   2
     Q(r) pseudized with  8 coefficients,  rinner =    1.100   1.100   1.100
                                                       1.100   1.100

     PseudoPot. # 2 for O  read from file:
     ./O.GGA-PBE-paw.UPF
     MD5 check sum: 734c27235a0248c51dbae37a1fbe46ec
     Pseudo is Ultrasoft + core correction, Zval =  6.0
     Generated by new atomic code, or converted to UPF format
     Using radial grid of  737 points,  5 beta functions with: 
                l(1) =   0
                l(2) =   0
                l(3) =   1
                l(4) =   1
                l(5) =   2
     Q(r) pseudized with  8 coefficients,  rinner =    0.900   0.900   0.900
                                                       0.900   0.900

     atomic species   valence    mass     pseudopotential
        Zn            20.00    65.39000     Zn( 1.00)
        O              6.00    15.99940     O ( 1.00)

     24 Sym. Ops. (no inversion) found



   Cartesian axes

     site n.     atom                  positions (alat units)
         1           Zn  tau(   1) = (   0.0000000   0.0000000   0.0000000  )
         2           O   tau(   2) = (  -0.2500000   0.2500000   0.2500000  )

     number of k points=    29  Fermi-Dirac smearing, width (Ry)=  0.0020
                       cart. coord. in units 2pi/alat
        k(    1) = (   0.0000000   0.0000000   0.0000000), wk =   0.0039062
        k(    2) = (  -0.1250000   0.1250000  -0.1250000), wk =   0.0312500
        k(    3) = (  -0.2500000   0.2500000  -0.2500000), wk =   0.0312500
        k(    4) = (  -0.3750000   0.3750000  -0.3750000), wk =   0.0312500
        k(    5) = (   0.5000000  -0.5000000   0.5000000), wk =   0.0156250
        k(    6) = (   0.0000000   0.2500000   0.0000000), wk =   0.0234375
        k(    7) = (  -0.1250000   0.3750000  -0.1250000), wk =   0.0937500
        k(    8) = (  -0.2500000   0.5000000  -0.2500000), wk =   0.0937500
        k(    9) = (   0.6250000  -0.3750000   0.6250000), wk =   0.0937500
        k(   10) = (   0.5000000  -0.2500000   0.5000000), wk =   0.0937500
        k(   11) = (   0.3750000  -0.1250000   0.3750000), wk =   0.0937500
        k(   12) = (   0.2500000   0.0000000   0.2500000), wk =   0.0468750
        k(   13) = (   0.0000000   0.5000000   0.0000000), wk =   0.0234375
        k(   14) = (  -0.1250000   0.6250000  -0.1250000), wk =   0.0937500
        k(   15) = (   0.7500000  -0.2500000   0.7500000), wk =   0.0937500
        k(   16) = (   0.6250000  -0.1250000   0.6250000), wk =   0.0937500
        k(   17) = (   0.5000000   0.0000000   0.5000000), wk =   0.0468750
        k(   18) = (   0.0000000   0.7500000   0.0000000), wk =   0.0234375
        k(   19) = (   0.8750000  -0.1250000   0.8750000), wk =   0.0937500
        k(   20) = (   0.7500000   0.0000000   0.7500000), wk =   0.0468750
        k(   21) = (   0.0000000  -1.0000000   0.0000000), wk =   0.0117188
        k(   22) = (  -0.2500000   0.5000000   0.0000000), wk =   0.0937500
        k(   23) = (   0.6250000  -0.3750000   0.8750000), wk =   0.1875000
        k(   24) = (   0.5000000  -0.2500000   0.7500000), wk =   0.0937500
        k(   25) = (   0.7500000  -0.2500000   1.0000000), wk =   0.0937500
        k(   26) = (   0.6250000  -0.1250000   0.8750000), wk =   0.1875000
        k(   27) = (   0.5000000   0.0000000   0.7500000), wk =   0.0937500
        k(   28) = (  -0.2500000  -1.0000000   0.0000000), wk =   0.0468750
        k(   29) = (  -0.5000000  -1.0000000   0.0000000), wk =   0.0234375

     Dense  grid:    10489 G-vectors     FFT dimensions: (  32,  32,  32)

     Smooth grid:     7631 G-vectors     FFT dimensions: (  27,  27,  27)

     Estimated max dynamical RAM per process >      18.66 MB

     Estimated total dynamical RAM >      74.63 MB

     Check: negative/imaginary core charge=   -0.000002    0.000000

     Initial potential from superposition of free atoms

     starting charge   25.99986, renormalised to   26.00000
     Starting wfcs are   17 randomized atomic wfcs

     total cpu time spent up to now is        0.4 secs

     Self-consistent Calculation

     iteration #  1     ecut=    40.00 Ry     beta= 0.70
     Davidson diagonalization with overlap
     ethr =  1.00E-02,  avg # of iterations =  2.9

     total cpu time spent up to now is        0.6 secs

     total energy              =    -493.57766337 Ry
     Harris-Foulkes estimate   =    -493.99812240 Ry
     estimated scf accuracy    <       0.54281682 Ry

     iteration #  2     ecut=    40.00 Ry     beta= 0.70
     Davidson diagonalization with overlap
     ethr =  2.09E-03,  avg # of iterations =  2.1

     total cpu time spent up to now is        0.8 secs

     total energy              =    -493.58313092 Ry
     Harris-Foulkes estimate   =    -494.22296410 Ry
     estimated scf accuracy    <       1.65138695 Ry

     iteration #  3     ecut=    40.00 Ry     beta= 0.70
     Davidson diagonalization with overlap
     ethr =  2.09E-03,  avg # of iterations =  2.1

     total cpu time spent up to now is        1.0 secs

     total energy              =    -493.86685204 Ry
     Harris-Foulkes estimate   =    -493.86956672 Ry
     estimated scf accuracy    <       0.00649881 Ry

     iteration #  4     ecut=    40.00 Ry     beta= 0.70
     Davidson diagonalization with overlap
     ethr =  2.50E-05,  avg # of iterations =  2.0

     total cpu time spent up to now is        1.2 secs

     total energy              =    -493.86793776 Ry
     Harris-Foulkes estimate   =    -493.86893489 Ry
     estimated scf accuracy    <       0.00223577 Ry

     iteration #  5     ecut=    40.00 Ry     beta= 0.70
     Davidson diagonalization with overlap
     ethr =  8.60E-06,  avg # of iterations =  2.0

     total cpu time spent up to now is        1.4 secs

     total energy              =    -493.86834988 Ry
     Harris-Foulkes estimate   =    -493.86840920 Ry
     estimated scf accuracy    <       0.00014971 Ry

     iteration #  6     ecut=    40.00 Ry     beta= 0.70
     Davidson diagonalization with overlap
     ethr =  5.76E-07,  avg # of iterations =  1.5

     total cpu time spent up to now is        1.6 secs

     total energy              =    -493.86836802 Ry
     Harris-Foulkes estimate   =    -493.86836732 Ry
     estimated scf accuracy    <       0.00000093 Ry

     iteration #  7     ecut=    40.00 Ry     beta= 0.70
     Davidson diagonalization with overlap
     ethr =  3.60E-09,  avg # of iterations =  2.0

     total cpu time spent up to now is        1.8 secs

     total energy              =    -493.86836820 Ry
     Harris-Foulkes estimate   =    -493.86836831 Ry
     estimated scf accuracy    <       0.00000032 Ry

     iteration #  8     ecut=    40.00 Ry     beta= 0.70
     Davidson diagonalization with overlap
     ethr =  1.24E-09,  avg # of iterations =  1.9

     total cpu time spent up to now is        2.0 secs

     total energy              =    -493.86836822 Ry
     Harris-Foulkes estimate   =    -493.86836823 Ry
     estimated scf accuracy    <       0.00000001 Ry

     iteration #  9     ecut=    40.00 Ry     beta= 0.70
     Davidson diagonalization with overlap
     ethr =  4.98E-11,  avg # of iterations =  2.0

     total cpu time spent up to now is        2.2 secs

     End of self-consistent calculation

          k = 0.0000 0.0000 0.0000 (   941 PWs)   bands (ev):

  -119.0285 -73.2154 -73.2154 -73.2154 -11.6531  -0.4729  -0.4729  -0.4729
     0.0345   0.0345   4.4100   4.4100   4.4100   4.6257  15.9535  15.9535
    15.9535

          k =-0.1250 0.1250-0.1250 (   932 PWs)   bands (ev):

  -119.0285 -73.2155 -73.2154 -73.2154 -11.6059  -0.4702  -0.4484  -0.4484
     0.0322   0.0322   3.4146   4.3402   4.3402   5.7044  14.8845  16.0195
    16.0195

          k =-0.2500 0.2500-0.2500 (   941 PWs)   bands (ev):

  -119.0285 -73.2157 -73.2155 -73.2155 -11.4898  -0.4043  -0.3959  -0.3959
     0.0368   0.0368   2.3767   4.1734   4.1734   6.9336  13.2006  16.0539
    16.0539

          k =-0.3750 0.3750-0.3750 (   941 PWs)   bands (ev):

  -119.0285 -73.2159 -73.2155 -73.2155 -11.3707  -0.3575  -0.3575  -0.1747
     0.0606   0.0606   1.4385   4.0074   4.0074   8.0385  11.8821  15.9266
    15.9266

          k = 0.5000-0.5000 0.5000 (   960 PWs)   bands (ev):

  -119.0285 -73.2160 -73.2156 -73.2156 -11.3205  -0.3468  -0.3468   0.0773
     0.0773   0.0857   0.9146   3.9385   3.9385   8.5696  11.3118  15.8391
    15.8391

          k = 0.0000 0.2500 0.0000 (   937 PWs)   bands (ev):

  -119.0285 -73.2155 -73.2155 -73.2155 -11.5903  -0.4960  -0.4262  -0.4262
     0.0162   0.0446   3.3710   4.2260   4.2260   5.9589  14.8330  15.9077
    15.9077

          k =-0.1250 0.3750-0.1250 (   941 PWs)   bands (ev):

  -119.0285 -73.2157 -73.2155 -73.2155 -11.4976  -0.4783  -0.3691  -0.3668
     0.0068   0.0550   2.6451   4.0256   4.0572   6.9460  13.5887  15.7132
    15.9188

          k =-0.2500 0.5000-0.2500 (   956 PWs)   bands (ev):

  -119.0285 -73.2159 -73.2156 -73.2155 -11.3797  -0.3889  -0.3220  -0.2474
     0.0360   0.0724   1.7800   3.8249   3.8566   8.0882  12.2844  15.2018
    15.9026

          k = 0.6250-0.3750 0.6250 (   942 PWs)   bands (ev):

  -119.0285 -73.2160 -73.2156 -73.2156 -11.3064  -0.3508  -0.3087  -0.0208
     0.0784   0.1359   1.1018   3.6157   3.8184   8.9512  11.4138  14.8681
    15.8916

          k = 0.5000-0.2500 0.5000 (   943 PWs)   bands (ev):

  -119.0285 -73.2160 -73.2156 -73.2156 -11.3229  -0.3444  -0.3221  -0.0656
     0.0506   0.1065   1.2720   3.5514   3.9334   8.7542  11.6523  14.7375
    16.0236

          k = 0.3750-0.1250 0.3750 (   945 PWs)   bands (ev):

  -119.0285 -73.2158 -73.2156 -73.2155 -11.4189  -0.3670  -0.3628  -0.3219
     0.0192   0.0690   2.0448   3.6949   4.1328   7.7225  12.7728  14.8725
    16.2548

          k = 0.2500 0.0000 0.2500 (   941 PWs)   bands (ev):

  -119.0285 -73.2156 -73.2155 -73.2155 -11.5358  -0.4574  -0.4189  -0.3969
     0.0173   0.0458   2.8451   4.0224   4.3009   6.5500  14.0406  15.4257
    16.2521

          k = 0.0000 0.5000 0.0000 (   950 PWs)   bands (ev):

  -119.0285 -73.2157 -73.2155 -73.2155 -11.4376  -0.5164  -0.2977  -0.2977
    -0.0171   0.0689   2.5352   3.7754   3.7754   7.5171  13.0505  15.9425
    15.9425

          k =-0.1250 0.6250-0.1250 (   947 PWs)   bands (ev):

  -119.0285 -73.2159 -73.2156 -73.2156 -11.3439  -0.4631  -0.2314  -0.2169
     0.0122   0.0828   2.0440   3.4699   3.5680   8.4393  12.2100  14.9330
    15.9990

          k = 0.7500-0.2500 0.7500 (   948 PWs)   bands (ev):

  -119.0285 -73.2159 -73.2157 -73.2156 -11.2714  -0.3803  -0.2104  -0.1016
     0.0828   0.1441   1.5074   3.0812   3.5269   9.5041  11.5066  14.0174
    16.0245

          k = 0.6250-0.1250 0.6250 (   949 PWs)   bands (ev):

  -119.0285 -73.2159 -73.2157 -73.2156 -11.2637  -0.3502  -0.2335  -0.0125
     0.0506   0.1932   1.3658   2.8514   3.6777   9.8577  11.4853  13.4321
    16.0913

          k = 0.5000 0.0000 0.5000 (   931 PWs)   bands (ev):

  -119.0285 -73.2159 -73.2157 -73.2156 -11.3253  -0.3392  -0.2932  -0.1539
     0.0196   0.1071   1.7110   3.0608   3.9284   8.9016  12.4115  13.4618
    16.2325

          k = 0.0000 0.7500 0.0000 (   950 PWs)   bands (ev):

  -119.0285 -73.2159 -73.2156 -73.2156 -11.2837  -0.4904  -0.1389  -0.1389
     0.0079   0.0932   1.9355   3.3071   3.3071   8.8858  11.5504  15.4128
    16.1200

          k = 0.8750-0.1250 0.8750 (   955 PWs)   bands (ev):

  -119.0285 -73.2160 -73.2157 -73.2156 -11.2351  -0.4424  -0.1043  -0.0956
     0.0935   0.1100   1.7043   2.9717   3.2301   9.6467  11.0636  14.5730
    16.1659

          k = 0.7500 0.0000 0.7500 (   955 PWs)   bands (ev):

  -119.0285 -73.2159 -73.2158 -73.2156 -11.2271  -0.3834  -0.1420  -0.0477
     0.0692   0.2228   1.5706   2.5937   3.3863  10.5550  10.7742  13.6261
    16.1384

          k = 0.0000-1.0000 0.0000 (   950 PWs)   bands (ev):

  -119.0285 -73.2160 -73.2157 -73.2157 -11.2197  -0.4743  -0.0604  -0.0604
     0.0696   0.1033   1.6721   3.1041   3.1041   9.5810  10.8166  15.0295
    16.2270

          k =-0.2500 0.5000 0.0000 (   947 PWs)   bands (ev):

  -119.0285 -73.2158 -73.2156 -73.2155 -11.4042  -0.4338  -0.3206  -0.2797
     0.0058   0.0744   2.1918   3.5449   3.9457   7.9049  12.8606  14.6675
    16.1193

          k = 0.6250-0.3750 0.8750 (   942 PWs)   bands (ev):

  -119.0285 -73.2159 -73.2157 -73.2156 -11.3095  -0.3484  -0.2893  -0.1261
     0.0464   0.1086   1.6096   3.1983   3.7392   9.0355  11.9920  13.9807
    15.9179

          k = 0.5000-0.2500 0.7500 (   948 PWs)   bands (ev):

  -119.0285 -73.2159 -73.2157 -73.2156 -11.2698  -0.3370  -0.2653  -0.0089
     0.0542   0.2022   1.2477   3.1042   3.6248   9.7131  11.3885  13.8606
    15.7713

          k = 0.7500-0.2500 1.0000 (   944 PWs)   bands (ev):

  -119.0285 -73.2159 -73.2157 -73.2156 -11.2730  -0.4106  -0.2063  -0.1061
     0.0621   0.1050   1.7808   3.0866   3.3611   9.3247  11.6403  14.3320
    15.6330

          k = 0.6250-0.1250 0.8750 (   944 PWs)   bands (ev):

  -119.0285 -73.2159 -73.2158 -73.2157 -11.2336  -0.3554  -0.1846  -0.0321
     0.0548   0.2148   1.5639   2.7503   3.2604  10.3185  11.2324  13.6632
    15.2555

          k = 0.5000 0.0000 0.7500 (   944 PWs)   bands (ev):

  -119.0285 -73.2159 -73.2158 -73.2156 -11.2489  -0.3321  -0.2282  -0.0043
     0.0304   0.1976   1.5426   2.7019   3.4607  10.1134  11.6272  13.2291
    15.5255

          k =-0.2500-1.0000 0.0000 (   952 PWs)   bands (ev):

  -119.0285 -73.2159 -73.2157 -73.2157 -11.2189  -0.4087  -0.1217  -0.0514
     0.0812   0.1707   1.6544   2.9356   3.0068  10.2248  10.8219  14.5630
    15.0689

          k =-0.5000-1.0000 0.0000 (   952 PWs)   bands (ev):

  -119.0285 -73.2159 -73.2158 -73.2157 -11.2180  -0.3359  -0.1556  -0.0264
     0.0385   0.2478   1.6336   2.7738   2.9112  10.8271  11.1698  13.7551
    14.3323

     the Fermi energy is     4.5387 ev

!    total energy              =    -493.86836823 Ry
     Harris-Foulkes estimate   =    -493.86836823 Ry
     estimated scf accuracy    <          6.9E-10 Ry

     The total energy is the sum of the following terms:

     one-electron contribution =    -446.39750233 Ry
     hartree contribution      =     230.14726760 Ry
     xc contribution           =     -49.34057834 Ry
     ewald contribution        =    -228.27755182 Ry
     smearing contrib. (-TS)   =      -0.00000334 Ry

     convergence has been achieved in   9 iterations

     Forces acting on atoms (cartesian axes, Ry/au):

     atom    1 type  1   force =    -0.00000000    0.00000000   -0.00000000
     atom    2 type  2   force =     0.00000000    0.00000000    0.00000000

     Total force =     0.000000     Total SCF correction =     0.000000


     Computing stress (Cartesian axis) and pressure

          total   stress  (Ry/bohr**3)                   (kbar)     P= -193.20
  -0.00131332  -0.00000000  -0.00000000       -193.20     -0.00     -0.00
  -0.00000000  -0.00131332   0.00000000         -0.00   -193.20      0.00
  -0.00000000   0.00000000  -0.00131332         -0.00      0.00   -193.20


     BFGS Geometry Optimization

     number of scf cycles    =   1
     number of bfgs steps    =   0

     enthalpy new            =    -493.8683682262 Ry

     new trust radius        =       0.0976600587 bohr
     new conv_thr            =       0.0000000100 Ry

     new unit-cell volume =    200.10510 a.u.^3 (    29.65252 Ang^3 )
     density =      4.55780 g/cm^3

CELL_PARAMETERS (alat=  9.60000000)
  -0.483583516   0.000000000   0.483583516
  -0.000000000   0.483583516   0.483583516
  -0.483583516   0.483583516   0.000000000

ATOMIC_POSITIONS (crystal)
Zn       0.000000000  -0.000000000   0.000000000
O        0.250000000   0.250000000   0.250000000



     Writing output data file ZnO.ZB.relax.save/
     NEW-OLD atomic charge density approx. for the potential

     Check: negative/imaginary core charge=   -0.000002    0.000000
     extrapolated charge   23.26120, renormalised to   26.00000

     total cpu time spent up to now is        2.5 secs

     Self-consistent Calculation

     iteration #  1     ecut=    40.00 Ry     beta= 0.70
     Davidson diagonalization with overlap
     ethr =  1.00E-06,  avg # of iterations =  4.8

     total cpu time spent up to now is        3.0 secs

     total energy              =    -488.53024247 Ry
     Harris-Foulkes estimate   =    -535.20822238 Ry
     estimated scf accuracy    <       3.92737456 Ry

     iteration #  2     ecut=    40.00 Ry     beta= 0.70
     Davidson diagonalization with overlap
     ethr =  1.00E-02,  avg # of iterations =  3.0

     total cpu time spent up to now is        3.3 secs

     total energy              =    -487.37147057 Ry
     Harris-Foulkes estimate   =    -503.80525154 Ry
     estimated scf accuracy    <      74.68612945 Ry

     iteration #  3     ecut=    40.00 Ry     beta= 0.70
     Davidson diagonalization with overlap
     ethr =  1.00E-02,  avg # of iterations =  3.0

     total cpu time spent up to now is        3.6 secs

     total energy              =    -493.93892503 Ry
     Harris-Foulkes estimate   =    -494.24357647 Ry
     estimated scf accuracy    <       1.20104857 Ry

     iteration #  4     ecut=    40.00 Ry     beta= 0.70
     Davidson diagonalization with overlap
     ethr =  4.62E-03,  avg # of iterations =  1.1

     total cpu time spent up to now is        3.8 secs

     total energy              =    -493.96604785 Ry
     Harris-Foulkes estimate   =    -494.02106160 Ry
     estimated scf accuracy    <       0.46675608 Ry

     iteration #  5     ecut=    40.00 Ry     beta= 0.70
     Davidson diagonalization with overlap
     ethr =  1.80E-03,  avg # of iterations =  1.0

     total cpu time spent up to now is        3.9 secs

     total energy              =    -493.91111908 Ry
     Harris-Foulkes estimate   =    -493.97278531 Ry
     estimated scf accuracy    <       0.28479558 Ry

     iteration #  6     ecut=    40.00 Ry     beta= 0.70
     Davidson diagonalization with overlap
     ethr =  1.10E-03,  avg # of iterations =  1.0

     total cpu time spent up to now is        4.2 secs

     total energy              =    -493.90398774 Ry
     Harris-Foulkes estimate   =    -493.91965150 Ry
     estimated scf accuracy    <       0.09853028 Ry

     iteration #  7     ecut=    40.00 Ry     beta= 0.70
     Davidson diagonalization with overlap
     ethr =  3.79E-04,  avg # of iterations =  1.0

     total cpu time spent up to now is        4.4 secs

     total energy              =    -493.90002142 Ry
     Harris-Foulkes estimate   =    -493.90613532 Ry
     estimated scf accuracy    <       0.04483367 Ry

     iteration #  8     ecut=    40.00 Ry     beta= 0.70
     Davidson diagonalization with overlap
     ethr =  1.72E-04,  avg # of iterations =  1.0

     total cpu time spent up to now is        4.7 secs

     total energy              =    -493.89364393 Ry
     Harris-Foulkes estimate   =    -493.90064600 Ry
     estimated scf accuracy    <       0.02441958 Ry

     iteration #  9     ecut=    40.00 Ry     beta= 0.70
     Davidson diagonalization with overlap
     ethr =  9.39E-05,  avg # of iterations =  1.9

     total cpu time spent up to now is        5.0 secs

     total energy              =    -493.89386842 Ry
     Harris-Foulkes estimate   =    -493.89507313 Ry
     estimated scf accuracy    <       0.00495188 Ry

     iteration # 10     ecut=    40.00 Ry     beta= 0.70
     Davidson diagonalization with overlap
     ethr =  1.90E-05,  avg # of iterations =  1.6

     total cpu time spent up to now is        5.3 secs

     total energy              =    -493.89362040 Ry
     Harris-Foulkes estimate   =    -493.89414344 Ry
     estimated scf accuracy    <       0.00129952 Ry

     iteration # 11     ecut=    40.00 Ry     beta= 0.70
     Davidson diagonalization with overlap
     ethr =  5.00E-06,  avg # of iterations =  2.0

     total cpu time spent up to now is        5.6 secs

     total energy              =    -493.89376663 Ry
     Harris-Foulkes estimate   =    -493.89379858 Ry
     estimated scf accuracy    <       0.00005491 Ry

     iteration # 12     ecut=    40.00 Ry     beta= 0.70
     Davidson diagonalization with overlap
     ethr =  2.11E-07,  avg # of iterations =  2.0

     total cpu time spent up to now is        5.9 secs

     total energy              =    -493.89378249 Ry
     Harris-Foulkes estimate   =    -493.89378538 Ry
     estimated scf accuracy    <       0.00000819 Ry

     iteration # 13     ecut=    40.00 Ry     beta= 0.70
     Davidson diagonalization with overlap
     ethr =  3.15E-08,  avg # of iterations =  2.0

     total cpu time spent up to now is        6.1 secs

     total energy              =    -493.89378285 Ry
     Harris-Foulkes estimate   =    -493.89378328 Ry
     estimated scf accuracy    <       0.00000073 Ry

     iteration # 14     ecut=    40.00 Ry     beta= 0.70
     Davidson diagonalization with overlap
     ethr =  2.81E-09,  avg # of iterations =  2.0

     total cpu time spent up to now is        6.5 secs

     total energy              =    -493.89378305 Ry
     Harris-Foulkes estimate   =    -493.89378310 Ry
     estimated scf accuracy    <       0.00000008 Ry

     iteration # 15     ecut=    40.00 Ry     beta= 0.70
     Davidson diagonalization with overlap
     ethr =  3.01E-10,  avg # of iterations =  2.0

     total cpu time spent up to now is        6.8 secs

     total energy              =    -493.89378307 Ry
     Harris-Foulkes estimate   =    -493.89378308 Ry
     estimated scf accuracy    <       0.00000002 Ry

     iteration # 16     ecut=    40.00 Ry     beta= 0.70
     Davidson diagonalization with overlap
     ethr =  6.39E-11,  avg # of iterations =  2.0

     total cpu time spent up to now is        7.1 secs

     End of self-consistent calculation

          k = 0.0000 0.0000 0.0000 (   941 PWs)   bands (ev):

  -117.7627 -71.9510 -71.9510 -71.9510 -10.9525   0.5818   0.5818   0.5818
     1.2824   1.2824   5.6032   5.6032   5.6032   5.9820  17.7543  17.7543
    17.7543

          k =-0.1292 0.1292-0.1292 (   932 PWs)   bands (ev):

  -117.7627 -71.9512 -71.9510 -71.9510 -10.8923   0.5672   0.6128   0.6128
     1.2791   1.2791   4.6042   5.5209   5.5209   7.0675  16.6416  17.8355
    17.8355

          k =-0.2585 0.2585-0.2585 (   941 PWs)   bands (ev):

  -117.7627 -71.9516 -71.9511 -71.9511 -10.7436   0.6040   0.6799   0.6799
     1.2841   1.2841   3.4743   5.3227   5.3227   8.3892  14.8658  17.8715
    17.8715

          k =-0.3877 0.3877-0.3877 (   941 PWs)   bands (ev):

  -117.7627 -71.9520 -71.9512 -71.9512 -10.5901   0.7306   0.7306   0.8449
     1.3143   1.3143   2.4124   5.1231   5.1231   9.5983  13.4616  17.7045
    17.7045

          k = 0.5170-0.5170 0.5170 (   960 PWs)   bands (ev):

  -117.7627 -71.9522 -71.9513 -71.9513 -10.5250   0.7454   0.7454   1.2169
     1.3360   1.3360   1.7310   5.0394   5.0394  10.1957  12.8374  17.5947
    17.5947

          k = 0.0000 0.2585 0.0000 (   937 PWs)   bands (ev):

  -117.7627 -71.9511 -71.9511 -71.9511 -10.8724   0.5317   0.6397   0.6397
     1.2578   1.2953   4.5776   5.3876   5.3876   7.3333  16.6138  17.7152
    17.7152

          k =-0.1292 0.3877-0.1292 (   941 PWs)   bands (ev):

  -117.7627 -71.9515 -71.9512 -71.9511 -10.7537   0.5266   0.7094   0.7122
     1.2447   1.3083   3.7873   5.1506   5.1940   8.3893  15.3103  17.4772
    17.7375

          k =-0.2585 0.5170-0.2585 (   956 PWs)   bands (ev):

  -117.7627 -71.9519 -71.9513 -71.9513 -10.6020   0.6474   0.7746   0.8135
     1.2794   1.3302   2.8017   4.9278   4.9470   9.6328  13.9093  16.9057
    17.7094

          k = 0.6462-0.3877 0.6462 (   942 PWs)   bands (ev):

  -117.7627 -71.9521 -71.9513 -71.9513 -10.5071   0.7307   0.7936   1.1129
     1.3375   1.3939   1.9386   4.6859   4.8983  10.6102  12.9303  16.5670
    17.6773

          k = 0.5170-0.2585 0.5170 (   943 PWs)   bands (ev):

  -117.7627 -71.9520 -71.9514 -71.9512 -10.5285   0.7428   0.7762   1.0108
     1.3009   1.3641   2.1824   4.6091   5.0353  10.3886  13.1954  16.4255
    17.8197

          k = 0.3877-0.1292 0.3877 (   945 PWs)   bands (ev):

  -117.7627 -71.9518 -71.9513 -71.9511 -10.6525   0.6672   0.7228   0.7351
     1.2607   1.3253   3.1089   4.7709   5.2733   9.2427  14.4332  16.5461
    18.1023

          k = 0.2585 0.0000 0.2585 (   941 PWs)   bands (ev):

  -117.7627 -71.9514 -71.9512 -71.9510 -10.8027   0.5600   0.6508   0.6747
     1.2591   1.2964   4.0003   5.1495   5.4732   7.9715  15.7839  17.1506
    18.1116

          k = 0.0000 0.5170 0.0000 (   950 PWs)   bands (ev):

  -117.7627 -71.9517 -71.9513 -71.9513 -10.6769   0.4599   0.8028   0.8028
     1.2124   1.3265   3.6992   4.8552   4.8552   8.9722  14.7834  17.7918
    17.7918

          k =-0.1292 0.6462-0.1292 (   947 PWs)   bands (ev):

  -117.7627 -71.9519 -71.9514 -71.9514 -10.5563   0.5130   0.8907   0.9024
     1.2450   1.3441   3.1285   4.5063   4.6056   9.9424  13.9202  16.5491
    17.8658

          k = 0.7755-0.2585 0.7755 (   948 PWs)   bands (ev):

  -117.7627 -71.9520 -71.9515 -71.9514 -10.4625   0.6489   0.9203   1.0526
     1.3434   1.4065   2.4152   4.0793   4.5530  11.1196  13.1162  15.6599
    17.8801

          k = 0.6462-0.1292 0.6462 (   949 PWs)   bands (ev):

  -117.7627 -71.9520 -71.9516 -71.9514 -10.4525   0.7149   0.8897   1.1894
     1.3011   1.4572   2.1865   3.8228   4.7327  11.6351  12.9254  15.0917
    17.9330

          k = 0.5170 0.0000 0.5170 (   931 PWs)   bands (ev):

  -117.7627 -71.9518 -71.9515 -71.9512 -10.5320   0.7418   0.8117   0.9071
     1.2611   1.3659   2.7073   4.0434   5.0312  10.5357  14.0407  15.0394
    18.0808

          k = 0.0000 0.7755 0.0000 (   950 PWs)   bands (ev):

  -117.7627 -71.9520 -71.9515 -71.9515 -10.4788   0.4634   1.0142   1.0142
     1.2378   1.3578   3.0258   4.2905   4.2905  10.3116  13.3248  16.8688
    18.0363

          k = 0.9047-0.1292 0.9047 (   955 PWs)   bands (ev):

  -117.7627 -71.9521 -71.9516 -71.9515 -10.4160   0.5342   1.0625   1.0833
     1.3577   1.3643   2.7096   3.9030   4.1943  11.0298  12.9095  16.1475
    18.0891

          k = 0.7755 0.0000 0.7755 (   955 PWs)   bands (ev):

  -117.7627 -71.9520 -71.9517 -71.9515 -10.4056   0.6408   1.0105   1.1632
     1.3256   1.5256   2.4236   3.5070   4.3835  12.0396  12.5424  15.2727
    18.0290

          k = 0.0000-1.0339 0.0000 (   950 PWs)   bands (ev):

  -117.7627 -71.9521 -71.9515 -71.9515 -10.3961   0.4839   1.1241   1.1241
     1.3172   1.3708   2.6997   4.0387   4.0387  10.8337  12.7678  16.4862
    18.1780

          k =-0.2585 0.5170 0.0000 (   947 PWs)   bands (ev):

  -117.7627 -71.9518 -71.9513 -71.9512 -10.6339   0.5662   0.7720   0.8131
     1.2418   1.3327   3.2899   4.5903   5.0588   9.4171  14.5755  16.2853
    17.9796

          k = 0.6462-0.3877 0.9047 (   942 PWs)   bands (ev):

  -117.7627 -71.9519 -71.9515 -71.9513 -10.5116   0.7056   0.8089   0.9856
     1.2910   1.3673   2.5775   4.2027   4.8124  10.6596  13.5995  15.6021
    17.7468

          k = 0.5170-0.2585 0.7755 (   948 PWs)   bands (ev):

  -117.7627 -71.9520 -71.9516 -71.9513 -10.4602   0.7386   0.8427   1.1856
     1.3010   1.4972   2.0359   4.1096   4.6730  11.4728  12.8430  15.5282
    17.5783

          k = 0.7755-0.2585 1.0339 (   944 PWs)   bands (ev):

  -117.7627 -71.9520 -71.9515 -71.9514 -10.4649   0.5835   0.9281   1.0520
     1.3075   1.3651   2.8005   4.0414   4.3698  10.8531  13.3641  15.9138
    17.4819

          k = 0.6462-0.1292 0.9047 (   944 PWs)   bands (ev):

  -117.7627 -71.9519 -71.9517 -71.9515 -10.4139   0.6833   0.9589   1.1672
     1.3021   1.5097   2.4381   3.6734   4.2503  11.9729  12.8542  15.3130
    17.0352

          k = 0.5170-0.0000 0.7755 (   944 PWs)   bands (ev):

  -117.7627 -71.9519 -71.9517 -71.9514 -10.4335   0.7306   0.8925   1.2037
     1.2692   1.4667   2.4169   3.6297   4.4857  11.8713  13.1331  14.8702
    17.3254

          k =-0.2585-1.0339 0.0000 (   952 PWs)   bands (ev):

  -117.7627 -71.9520 -71.9516 -71.9515 -10.3950   0.5879   1.0567   1.1304
     1.3404   1.4488   2.6179   3.8232   3.9704  11.5362  12.7714  16.1257
    16.9326

          k =-0.5170-1.0339 0.0000 (   952 PWs)   bands (ev):

  -117.7627 -71.9519 -71.9518 -71.9515 -10.3939   0.7130   1.0181   1.1486
     1.2838   1.5615   2.5243   3.6110   3.9087  12.5407  12.7753  15.5378
    15.9242

     the Fermi energy is     5.8111 ev

!    total energy              =    -493.89378308 Ry
     Harris-Foulkes estimate   =    -493.89378308 Ry
     estimated scf accuracy    <          4.1E-10 Ry

     The total energy is the sum of the following terms:

     one-electron contribution =    -433.06117753 Ry
     hartree contribution      =     224.61229261 Ry
     xc contribution           =     -49.41787868 Ry
     ewald contribution        =    -236.02701923 Ry
     smearing contrib. (-TS)   =      -0.00000024 Ry

     convergence has been achieved in  16 iterations

     Forces acting on atoms (cartesian axes, Ry/au):

     atom    1 type  1   force =    -0.00000000    0.00000000   -0.00000000
     atom    2 type  2   force =     0.00000000   -0.00000000    0.00000000

     Total force =     0.000000     Total SCF correction =     0.000000


     Computing stress (Cartesian axis) and pressure

          total   stress  (Ry/bohr**3)                   (kbar)     P= -157.32
  -0.00106947  -0.00000000  -0.00000000       -157.32     -0.00     -0.00
  -0.00000000  -0.00106947   0.00000000         -0.00   -157.32      0.00
   0.00000000   0.00000000  -0.00106947          0.00      0.00   -157.32


     number of scf cycles    =   2
     number of bfgs steps    =   1

     enthalpy old            =    -493.8683682262 Ry
     enthalpy new            =    -493.8937830766 Ry

     CASE: enthalpy_new < enthalpy_old

     new trust radius        =       0.1440651654 bohr
     new conv_thr            =            1.0E-10 Ry

     new unit-cell volume =    171.06642 a.u.^3 (    25.34943 Ang^3 )
     density =      5.33149 g/cm^3

CELL_PARAMETERS (alat=  9.60000000)
  -0.458958791   0.000000000   0.458958791
  -0.000000000   0.458958791   0.458958791
  -0.458958791   0.458958791   0.000000000

ATOMIC_POSITIONS (crystal)
Zn      -0.000000000  -0.000000000   0.000000000
O        0.250000000   0.250000000   0.250000000



     Writing output data file ZnO.ZB.relax.save/
     NEW-OLD atomic charge density approx. for the potential

     Check: negative/imaginary core charge=   -0.000003    0.000000
     extrapolated charge   21.58650, renormalised to   26.00000

     total cpu time spent up to now is        7.5 secs

     Self-consistent Calculation

     iteration #  1     ecut=    40.00 Ry     beta= 0.70
     Davidson diagonalization with overlap
     ethr =  1.00E-06,  avg # of iterations =  5.2

     total cpu time spent up to now is        7.9 secs

     total energy              =    -483.73320395 Ry
     Harris-Foulkes estimate   =    -557.09727131 Ry
     estimated scf accuracy    <       7.51130980 Ry

     iteration #  2     ecut=    40.00 Ry     beta= 0.70
     Davidson diagonalization with overlap
     ethr =  1.00E-02,  avg # of iterations =  3.4

     total cpu time spent up to now is        8.2 secs

     total energy              =    -486.40583870 Ry
     Harris-Foulkes estimate   =    -510.46798816 Ry
     estimated scf accuracy    <      92.64746884 Ry

     iteration #  3     ecut=    40.00 Ry     beta= 0.70
     Davidson diagonalization with overlap
     ethr =  1.00E-02,  avg # of iterations =  3.0

     total cpu time spent up to now is        8.5 secs

     total energy              =    -494.00140211 Ry
     Harris-Foulkes estimate   =    -494.40815635 Ry
     estimated scf accuracy    <       1.69888602 Ry

     iteration #  4     ecut=    40.00 Ry     beta= 0.70
     Davidson diagonalization with overlap
     ethr =  6.53E-03,  avg # of iterations =  1.0

     total cpu time spent up to now is        8.7 secs

     total energy              =    -494.01082045 Ry
     Harris-Foulkes estimate   =    -494.08869373 Ry
     estimated scf accuracy    <       0.65842811 Ry

     iteration #  5     ecut=    40.00 Ry     beta= 0.70
     Davidson diagonalization with overlap
     ethr =  2.53E-03,  avg # of iterations =  1.0

     total cpu time spent up to now is        8.8 secs

     total energy              =    -493.92941477 Ry
     Harris-Foulkes estimate   =    -494.02007800 Ry
     estimated scf accuracy    <       0.38415011 Ry

     iteration #  6     ecut=    40.00 Ry     beta= 0.70
     Davidson diagonalization with overlap
     ethr =  1.48E-03,  avg # of iterations =  1.0

     total cpu time spent up to now is        9.0 secs

     total energy              =    -493.91648397 Ry
     Harris-Foulkes estimate   =    -493.94363196 Ry
     estimated scf accuracy    <       0.10997312 Ry

     iteration #  7     ecut=    40.00 Ry     beta= 0.70
     Davidson diagonalization with overlap
     ethr =  4.23E-04,  avg # of iterations =  1.4

     total cpu time spent up to now is        9.2 secs

     total energy              =    -493.91106866 Ry
     Harris-Foulkes estimate   =    -493.92200124 Ry
     estimated scf accuracy    <       0.02669867 Ry

     iteration #  8     ecut=    40.00 Ry     beta= 0.70
     Davidson diagonalization with overlap
     ethr =  1.03E-04,  avg # of iterations =  2.0

     total cpu time spent up to now is        9.4 secs

     total energy              =    -493.91502327 Ry
     Harris-Foulkes estimate   =    -493.91517503 Ry
     estimated scf accuracy    <       0.00055115 Ry

     iteration #  9     ecut=    40.00 Ry     beta= 0.70
     Davidson diagonalization with overlap
     ethr =  2.12E-06,  avg # of iterations =  2.0

     total cpu time spent up to now is        9.6 secs

     total energy              =    -493.91504765 Ry
     Harris-Foulkes estimate   =    -493.91506545 Ry
     estimated scf accuracy    <       0.00010399 Ry

     iteration # 10     ecut=    40.00 Ry     beta= 0.70
     Davidson diagonalization with overlap
     ethr =  4.00E-07,  avg # of iterations =  1.0

     total cpu time spent up to now is        9.7 secs

     total energy              =    -493.91502518 Ry
     Harris-Foulkes estimate   =    -493.91505291 Ry
     estimated scf accuracy    <       0.00005480 Ry

     iteration # 11     ecut=    40.00 Ry     beta= 0.70
     Davidson diagonalization with overlap
     ethr =  2.11E-07,  avg # of iterations =  2.0

     total cpu time spent up to now is        9.9 secs

     total energy              =    -493.91503839 Ry
     Harris-Foulkes estimate   =    -493.91503926 Ry
     estimated scf accuracy    <       0.00000177 Ry

     iteration # 12     ecut=    40.00 Ry     beta= 0.70
     Davidson diagonalization with overlap
     ethr =  6.80E-09,  avg # of iterations =  2.0

     total cpu time spent up to now is       10.1 secs

     total energy              =    -493.91503874 Ry
     Harris-Foulkes estimate   =    -493.91503878 Ry
     estimated scf accuracy    <       0.00000009 Ry

     iteration # 13     ecut=    40.00 Ry     beta= 0.70
     Davidson diagonalization with overlap
     ethr =  3.59E-10,  avg # of iterations =  2.0

     total cpu time spent up to now is       10.3 secs

     total energy              =    -493.91503876 Ry
     Harris-Foulkes estimate   =    -493.91503876 Ry
     estimated scf accuracy    <          2.8E-09 Ry

     iteration # 14     ecut=    40.00 Ry     beta= 0.70
     Davidson diagonalization with overlap
     ethr =  1.06E-11,  avg # of iterations =  1.0

     total cpu time spent up to now is       10.5 secs

     total energy              =    -493.91503876 Ry
     Harris-Foulkes estimate   =    -493.91503876 Ry
     estimated scf accuracy    <          1.9E-10 Ry

     iteration # 15     ecut=    40.00 Ry     beta= 0.70
     Davidson diagonalization with overlap
     ethr =  7.35E-13,  avg # of iterations =  2.0

     total cpu time spent up to now is       10.7 secs

     End of self-consistent calculation

          k = 0.0000 0.0000 0.0000 (   941 PWs)   bands (ev):

  -115.5893 -69.7817 -69.7817 -69.7817  -9.7494   2.3181   2.3181   2.3181
     3.4199   3.4199   7.8022   7.8022   7.8022   8.4191  20.8888  20.8888
    20.8888

          k =-0.1362 0.1362-0.1362 (   932 PWs)   bands (ev):

  -115.5893 -69.7819 -69.7817 -69.7817  -9.6639   2.2617   2.3603   2.3603
     3.4143   3.4143   6.8029   7.6979   7.6979   9.5146  19.7039  20.9986
    20.9986

          k =-0.2724 0.2724-0.2724 (   941 PWs)   bands (ev):

  -115.5892 -69.7829 -69.7818 -69.7818  -9.4512   2.2101   2.4529   2.4529
     3.4201   3.4201   5.5528   7.4440   7.4440  10.9748  17.7818  21.0329
    21.0329

          k =-0.4085 0.4085-0.4085 (   941 PWs)   bands (ev):

  -115.5892 -69.7836 -69.7820 -69.7820  -9.2288   2.3637   2.5253   2.5253
     3.4636   3.4636   4.3737   7.1825   7.1825  12.3477  16.2488  20.7867
    20.7867

          k = 0.5447-0.5447 0.5447 (   960 PWs)   bands (ev):

  -115.5892 -69.7841 -69.7822 -69.7822  -9.1337   2.5473   2.5473   2.6092
     3.4959   3.4959   3.7341   7.0701   7.0701  13.0519  15.5419  20.6356
    20.6356

          k = 0.0000 0.2724 0.0000 (   937 PWs)   bands (ev):

  -115.5893 -69.7819 -69.7818 -69.7818  -9.6357   2.2092   2.3944   2.3944
     3.3820   3.4387   6.8119   7.5315   7.5315   9.7927  19.7298  20.8627
    20.8627

          k =-0.1362 0.4085-0.1362 (   941 PWs)   bands (ev):

  -115.5892 -69.7826 -69.7819 -69.7819  -9.4661   2.1409   2.4822   2.4931
     3.3606   3.4571   5.9307   7.2302   7.2984  10.9483  18.3371  20.5324
    20.9049

          k =-0.2724 0.5447-0.2724 (   956 PWs)   bands (ev):

  -115.5892 -69.7835 -69.7822 -69.7821  -9.2469   2.2402   2.5686   2.5824
     3.4067   3.4882   4.7892   6.9632   6.9742  12.3480  16.7772  19.8738
    20.8499

          k = 0.6809-0.4085 0.6809 (   942 PWs)   bands (ev):

  -115.5892 -69.7838 -69.7822 -69.7821  -9.1085   2.4696   2.6127   2.7093
     3.4983   3.5295   3.8338   6.6732   6.8934  13.5126  15.6186  19.5411
    20.7743

          k = 0.5447-0.2724 0.5447 (   943 PWs)   bands (ev):

  -115.5892 -69.7837 -69.7823 -69.7820  -9.1398   2.5197   2.5634   2.5888
     3.4432   3.5219   4.1027   6.5734   7.0708  13.2540  15.9232  19.3818
    20.9324

          k = 0.4085-0.1362 0.4085 (   945 PWs)   bands (ev):

  -115.5892 -69.7832 -69.7822 -69.7818  -9.3201   2.2540   2.5087   2.5138
     3.3843   3.4799   5.1514   6.7661   7.3794  11.9273  17.3527  19.4628
    21.3160

          k = 0.2724 0.0000 0.2724 (   941 PWs)   bands (ev):

  -115.5892 -69.7825 -69.7820 -69.7816  -9.5361   2.2031   2.4143   2.4378
     3.3834   3.4393   6.1628   7.2315   7.6357  10.5033  18.8413  20.1392
    21.3599

          k = 0.0000 0.5447 0.0000 (   950 PWs)   bands (ev):

  -115.5892 -69.7829 -69.7822 -69.7822  -9.3561   2.0228   2.6159   2.6159
     3.3099   3.4843   5.8898   6.8562   6.8562  11.5282  17.8695  21.0187
    21.0187

          k =-0.1362 0.6809-0.1362 (   947 PWs)   bands (ev):

  -115.5892 -69.7832 -69.7824 -69.7823  -9.1817   2.0498   2.7421   2.7432
     3.3476   3.5095   5.1881   6.4433   6.5303  12.5512  16.9993  19.3203
    21.1238

          k = 0.8171-0.2724 0.8171 (   948 PWs)   bands (ev):

  -115.5891 -69.7836 -69.7826 -69.7824  -9.0451   2.2588   2.7887   2.9097
     3.5073   3.5470   4.2180   5.9672   6.4550  13.8574  16.0582  18.5396
    21.1111

          k = 0.6809-0.1362 0.6809 (   949 PWs)   bands (ev):

  -115.5891 -69.7836 -69.7828 -69.7823  -9.0303   2.4231   2.7454   3.0417
     3.4438   3.5113   3.9819   5.6622   6.6873  14.7236  15.4862  18.0260
    21.1323

          k = 0.5447 0.0000 0.5447 (   931 PWs)   bands (ev):

  -115.5891 -69.7831 -69.7826 -69.7820  -9.1458   2.4917   2.5379   2.6360
     3.3849   3.5251   4.6864   5.8807   7.0714  13.3924  16.9123  17.8249
    21.2908

          k = 0.0000 0.8171 0.0000 (   950 PWs)   bands (ev):

  -115.5892 -69.7835 -69.7825 -69.7825  -9.0695   1.9580   2.9226   2.9226
     3.3316   3.5300   5.1021   6.1170   6.1170  12.7604  16.5536  19.4308
    21.3919

          k = 0.9532-0.1362 0.9532 (   955 PWs)   bands (ev):

  -115.5892 -69.7838 -69.7827 -69.7826  -8.9780   2.0541   2.9982   3.0428
     3.4952   3.5291   4.6217   5.6598   5.9840  13.4087  16.2580  18.8567
    21.4553

          k = 0.8171 0.0000 0.8171 (   955 PWs)   bands (ev):

  -115.5891 -69.7836 -69.7830 -69.7825  -8.9626   2.2518   2.9188   3.2077
     3.4806   3.7754   3.9492   5.2846   6.2351  14.4403  15.8872  18.1464
    21.3263

          k = 0.0000-1.0894 0.0000 (   950 PWs)   bands (ev):

  -115.5891 -69.7839 -69.7826 -69.7826  -8.9491   1.9708   3.0959   3.0959
     3.4427   3.5490   4.6685   5.7707   5.7707  13.0787  16.2128  19.0549
    21.6014

          k =-0.2724 0.5447 0.0000 (   947 PWs)   bands (ev):

  -115.5892 -69.7831 -69.7823 -69.7820  -9.2936   2.1452   2.5666   2.6171
     3.3531   3.4918   5.3808   6.5291   7.1216  12.0747  17.6313  19.0714
    21.2263

          k = 0.6809-0.4085 0.9532 (   942 PWs)   bands (ev):

  -115.5892 -69.7834 -69.7826 -69.7821  -9.1162   2.3478   2.5995   2.7847
     3.4181   3.5269   4.5030   6.0801   6.8047  13.4784  16.4658  18.4484
    20.9337

          k = 0.5447-0.2724 0.8171 (   948 PWs)   bands (ev):

  -115.5892 -69.7837 -69.7827 -69.7822  -9.0412   2.4691   2.6422   3.0116
     3.4298   3.7069   3.7296   5.9957   6.6186  14.5420  15.4190  18.4707
    20.7275

          k = 0.8171-0.2724 1.0894 (   944 PWs)   bands (ev):

  -115.5891 -69.7835 -69.7826 -69.7824  -9.0490   2.1354   2.7954   2.9590
     3.4276   3.5288   4.7670   5.8154   6.2616  13.4552  16.5265  18.6385
    20.7302

          k = 0.6809-0.1362 0.9532 (   944 PWs)   bands (ev):

  -115.5891 -69.7835 -69.7829 -69.7824  -8.9748   2.3221   2.8375   3.1445
     3.4293   3.7181   4.1305   5.4132   6.1129  14.5984  16.0146  18.1844
    20.1739

          k = 0.5447-0.0000 0.8171 (   944 PWs)   bands (ev):

  -115.5891 -69.7834 -69.7830 -69.7823  -9.0032   2.4282   2.7164   3.1452
     3.3819   3.5811   4.2162   5.3808   6.4006  14.7997  15.9507  17.7531
    20.4816

          k =-0.2724-1.0894 0.0000 (   952 PWs)   bands (ev):

  -115.5891 -69.7838 -69.7828 -69.7826  -8.9475   2.1418   3.0312   3.0751
     3.5006   3.6287   4.4585   5.4610   5.7951  13.8758  16.2152  18.8350
    20.2127

          k =-0.5447-1.0894 0.0000 (   952 PWs)   bands (ev):

  -115.5891 -69.7834 -69.7832 -69.7825  -8.9458   2.3806   2.9904   3.0160
     3.4172   3.8374   4.2632   5.1233   5.8125  14.9756  16.2188  18.6836
    18.6902

     the Fermi energy is     8.1272 ev

!    total energy              =    -493.91503876 Ry
     Harris-Foulkes estimate   =    -493.91503876 Ry
     estimated scf accuracy    <          5.8E-11 Ry

     The total energy is the sum of the following terms:

     one-electron contribution =    -411.42644000 Ry
     hartree contribution      =     215.75918838 Ry
     xc contribution           =     -49.55710245 Ry
     ewald contribution        =    -248.69068468 Ry
     smearing contrib. (-TS)   =      -0.00000000 Ry

     convergence has been achieved in  15 iterations

     Forces acting on atoms (cartesian axes, Ry/au):

     atom    1 type  1   force =    -0.00000000   -0.00000000    0.00000000
     atom    2 type  2   force =     0.00000000    0.00000000   -0.00000000

     Total force =     0.000000     Total SCF correction =     0.000000


     Computing stress (Cartesian axis) and pressure

          total   stress  (Ry/bohr**3)                   (kbar)     P=  -37.22
  -0.00025302  -0.00000000   0.00000000        -37.22     -0.00      0.00
  -0.00000000  -0.00025302   0.00000000         -0.00    -37.22      0.00
   0.00000000  -0.00000000  -0.00025302          0.00     -0.00    -37.22


     number of scf cycles    =   3
     number of bfgs steps    =   2

     enthalpy old            =    -493.8937830766 Ry
     enthalpy new            =    -493.9150387574 Ry

     CASE: enthalpy_new < enthalpy_old

     new trust radius        =       0.0380093550 bohr
     new conv_thr            =            1.0E-10 Ry

     new unit-cell volume =    163.71725 a.u.^3 (    24.26039 Ang^3 )
     density =      5.57082 g/cm^3

CELL_PARAMETERS (alat=  9.60000000)
  -0.452289927   0.000000000   0.452289927
  -0.000000000   0.452289927   0.452289927
  -0.452289927   0.452289927   0.000000000

ATOMIC_POSITIONS (crystal)
Zn      -0.000000000  -0.000000000   0.000000000
O        0.250000000   0.250000000   0.250000000



     Writing output data file ZnO.ZB.relax.save/
     NEW-OLD atomic charge density approx. for the potential

     Check: negative/imaginary core charge=   -0.000003    0.000000
     extrapolated charge   24.83288, renormalised to   26.00000

     total cpu time spent up to now is       11.1 secs

     Self-consistent Calculation

     iteration #  1     ecut=    40.00 Ry     beta= 0.70
     Davidson diagonalization with overlap
     ethr =  1.00E-06,  avg # of iterations =  4.0

     total cpu time spent up to now is       11.7 secs

     total energy              =    -492.45273471 Ry
     Harris-Foulkes estimate   =    -510.44490089 Ry
     estimated scf accuracy    <       1.11071523 Ry

     iteration #  2     ecut=    40.00 Ry     beta= 0.70
     Davidson diagonalization with overlap
     ethr =  4.27E-03,  avg # of iterations =  3.0

     total cpu time spent up to now is       12.1 secs

     total energy              =    -492.02917032 Ry
     Harris-Foulkes estimate   =    -496.21599486 Ry
     estimated scf accuracy    <      17.58729935 Ry

     iteration #  3     ecut=    40.00 Ry     beta= 0.70
     Davidson diagonalization with overlap
     ethr =  4.27E-03,  avg # of iterations =  3.0

     total cpu time spent up to now is       12.4 secs

     total energy              =    -493.94826950 Ry
     Harris-Foulkes estimate   =    -494.01926138 Ry
     estimated scf accuracy    <       0.36510883 Ry

     iteration #  4     ecut=    40.00 Ry     beta= 0.70
     Davidson diagonalization with overlap
     ethr =  1.40E-03,  avg # of iterations =  1.0

     total cpu time spent up to now is       12.7 secs

     total energy              =    -493.94500837 Ry
     Harris-Foulkes estimate   =    -493.96383876 Ry
     estimated scf accuracy    <       0.17796632 Ry

     iteration #  5     ecut=    40.00 Ry     beta= 0.70
     Davidson diagonalization with overlap
     ethr =  6.84E-04,  avg # of iterations =  1.0

     total cpu time spent up to now is       13.0 secs

     total energy              =    -493.92382717 Ry
     Harris-Foulkes estimate   =    -493.94643488 Ry
     estimated scf accuracy    <       0.11395800 Ry

     iteration #  6     ecut=    40.00 Ry     beta= 0.70
     Davidson diagonalization with overlap
     ethr =  4.38E-04,  avg # of iterations =  1.0

     total cpu time spent up to now is       13.2 secs

     total energy              =    -493.92191921 Ry
     Harris-Foulkes estimate   =    -493.92703490 Ry
     estimated scf accuracy    <       0.04309241 Ry

     iteration #  7     ecut=    40.00 Ry     beta= 0.70
     Davidson diagonalization with overlap
     ethr =  1.66E-04,  avg # of iterations =  1.0

     total cpu time spent up to now is       13.5 secs

     total energy              =    -493.91981443 Ry
     Harris-Foulkes estimate   =    -493.92245585 Ry
     estimated scf accuracy    <       0.02482442 Ry

     iteration #  8     ecut=    40.00 Ry     beta= 0.70
     Davidson diagonalization with overlap
     ethr =  9.55E-05,  avg # of iterations =  1.0

     total cpu time spent up to now is       13.7 secs

     total energy              =    -493.91457352 Ry
     Harris-Foulkes estimate   =    -493.92000212 Ry
     estimated scf accuracy    <       0.01599558 Ry

     iteration #  9     ecut=    40.00 Ry     beta= 0.70
     Davidson diagonalization with overlap
     ethr =  6.15E-05,  avg # of iterations =  2.0

     total cpu time spent up to now is       14.0 secs

     total energy              =    -493.91560432 Ry
     Harris-Foulkes estimate   =    -493.91599045 Ry
     estimated scf accuracy    <       0.00169629 Ry

     iteration # 10     ecut=    40.00 Ry     beta= 0.70
     Davidson diagonalization with overlap
     ethr =  6.52E-06,  avg # of iterations =  1.2

     total cpu time spent up to now is       14.3 secs

     total energy              =    -493.91553130 Ry
     Harris-Foulkes estimate   =    -493.91569262 Ry
     estimated scf accuracy    <       0.00050326 Ry

     iteration # 11     ecut=    40.00 Ry     beta= 0.70
     Davidson diagonalization with overlap
     ethr =  1.94E-06,  avg # of iterations =  2.0

     total cpu time spent up to now is       14.6 secs

     total energy              =    -493.91552982 Ry
     Harris-Foulkes estimate   =    -493.91557179 Ry
     estimated scf accuracy    <       0.00007445 Ry

     iteration # 12     ecut=    40.00 Ry     beta= 0.70
     Davidson diagonalization with overlap
     ethr =  2.86E-07,  avg # of iterations =  2.0

     total cpu time spent up to now is       14.9 secs

     total energy              =    -493.91555111 Ry
     Harris-Foulkes estimate   =    -493.91555259 Ry
     estimated scf accuracy    <       0.00000499 Ry

     iteration # 13     ecut=    40.00 Ry     beta= 0.70
     Davidson diagonalization with overlap
     ethr =  1.92E-08,  avg # of iterations =  1.9

     total cpu time spent up to now is       15.2 secs

     total energy              =    -493.91555116 Ry
     Harris-Foulkes estimate   =    -493.91555143 Ry
     estimated scf accuracy    <       0.00000089 Ry

     iteration # 14     ecut=    40.00 Ry     beta= 0.70
     Davidson diagonalization with overlap
     ethr =  3.42E-09,  avg # of iterations =  2.0

     total cpu time spent up to now is       15.4 secs

     total energy              =    -493.91555120 Ry
     Harris-Foulkes estimate   =    -493.91555123 Ry
     estimated scf accuracy    <       0.00000011 Ry

     iteration # 15     ecut=    40.00 Ry     beta= 0.70
     Davidson diagonalization with overlap
     ethr =  4.08E-10,  avg # of iterations =  2.0

     total cpu time spent up to now is       15.7 secs

     total energy              =    -493.91555121 Ry
     Harris-Foulkes estimate   =    -493.91555121 Ry
     estimated scf accuracy    <          7.7E-09 Ry

     iteration # 16     ecut=    40.00 Ry     beta= 0.70
     Davidson diagonalization with overlap
     ethr =  2.95E-11,  avg # of iterations =  2.0

     total cpu time spent up to now is       16.0 secs

     total energy              =    -493.91555121 Ry
     Harris-Foulkes estimate   =    -493.91555121 Ry
     estimated scf accuracy    <          1.3E-09 Ry

     iteration # 17     ecut=    40.00 Ry     beta= 0.70
     Davidson diagonalization with overlap
     ethr =  4.88E-12,  avg # of iterations =  1.0

     total cpu time spent up to now is       16.3 secs

     total energy              =    -493.91555121 Ry
     Harris-Foulkes estimate   =    -493.91555121 Ry
     estimated scf accuracy    <          1.0E-09 Ry

     iteration # 18     ecut=    40.00 Ry     beta= 0.70
     Davidson diagonalization with overlap
     ethr =  3.92E-12,  avg # of iterations =  2.0

     total cpu time spent up to now is       16.6 secs

     End of self-consistent calculation

          k = 0.0000 0.0000 0.0000 (   941 PWs)   bands (ev):

  -114.9357 -69.1298 -69.1298 -69.1298  -9.3855   2.8251   2.8251   2.8251
     4.0613   4.0613   8.4974   8.4974   8.4974   9.1766  21.8413  21.8413
    21.8413

          k =-0.1382 0.1382-0.1382 (   932 PWs)   bands (ev):

  -114.9357 -69.1301 -69.1298 -69.1298  -9.2918   2.7548   2.8707   2.8707
     4.0549   4.0549   7.4984   8.3865   8.3865  10.2745  20.6344  21.9603
    21.9603

          k =-0.2764 0.2764-0.2764 (   941 PWs)   bands (ev):

  -114.9356 -69.1312 -69.1299 -69.1299  -9.0581   2.6718   2.9708   2.9708
     4.0608   4.0608   6.2163   8.1156   8.1156  11.7723  18.6702  21.9930
    21.9930

          k =-0.4146 0.4146-0.4146 (   941 PWs)   bands (ev):

  -114.9356 -69.1321 -69.1301 -69.1301  -8.8128   2.7878   3.0495   3.0495
     4.1089   4.1089   5.0107   7.8346   7.8346  13.1908  17.1030  21.7207
    21.7207

          k = 0.5527-0.5527 0.5527 (   960 PWs)   bands (ev):

  -114.9356 -69.1327 -69.1303 -69.1303  -8.7076   2.9893   3.0737   3.0737
     4.1450   4.1450   4.3884   7.7131   7.7131  13.9247  16.3746  21.5568
    21.5568

          k = 0.0000 0.2764-0.0000 (   937 PWs)   bands (ev):

  -114.9357 -69.1301 -69.1300 -69.1300  -9.2609   2.6974   2.9067   2.9067
     4.0187   4.0822   7.5191   8.2101   8.2101  10.5548  20.6794  21.8192
    21.8192

          k =-0.1382 0.4146-0.1382 (   941 PWs)   bands (ev):

  -114.9356 -69.1309 -69.1301 -69.1300  -9.0746   2.6072   2.9998   3.0129
     3.9943   4.1023   6.6121   7.8893   7.9662  11.7366  19.2618  21.4578
    21.8676

          k =-0.2764 0.5527-0.2764 (   956 PWs)   bands (ev):

  -114.9356 -69.1320 -69.1304 -69.1303  -8.8331   2.6863   3.0854   3.1101
     4.0442   4.1365   5.4291   7.6027   7.6247  13.1793  17.6555  20.7787
    21.8031

          k = 0.6909-0.4146 0.6909 (   942 PWs)   bands (ev):

  -114.9355 -69.1324 -69.1304 -69.1303  -8.6800   2.9408   3.1439   3.1671
     4.1476   4.1700   4.4740   7.3053   7.5260  14.3963  16.4464  20.4507
    21.7130

          k = 0.5527-0.2764 0.5527 (   943 PWs)   bands (ev):

  -114.9355 -69.1322 -69.1305 -69.1302  -8.7146   2.9694   3.0543   3.1184
     4.0860   4.1705   4.7369   7.1982   7.7161  14.1286  16.7604  20.2861
    21.8752

          k = 0.4146-0.1382 0.4146 (   945 PWs)   bands (ev):

  -114.9356 -69.1316 -69.1304 -69.1300  -8.9138   2.7057   3.0264   3.0373
     4.0207   4.1271   5.8062   7.3999   8.0465  12.7519  18.2438  20.3523
    22.2918

          k = 0.2764 0.0000 0.2764 (   941 PWs)   bands (ev):

  -114.9356 -69.1307 -69.1302 -69.1297  -9.1516   2.6788   2.9296   2.9521
     4.0201   4.0826   6.8505   7.8908   8.3199  11.2856  19.7740  21.0447
    22.3499

          k = 0.0000 0.5527-0.0000 (   950 PWs)   bands (ev):

  -114.9356 -69.1312 -69.1304 -69.1304  -8.9537   2.4745   3.1448   3.1448
     3.9369   4.1326   6.5864   7.4918   7.4918  12.3107  18.8221  21.8022
    22.0009

          k =-0.1382 0.6909-0.1382 (   947 PWs)   bands (ev):

  -114.9356 -69.1317 -69.1306 -69.1305  -8.7614   2.4900   3.2789   3.2822
     3.9761   4.1605   5.8432   7.0636   7.1428  13.3440  17.9558  20.1568
    22.1156

          k = 0.8291-0.2764 0.8291 (   948 PWs)   bands (ev):

  -114.9355 -69.1321 -69.1309 -69.1307  -8.6105   2.7121   3.3340   3.4381
     4.1576   4.1827   4.8155   6.5757   7.0603  14.6753  16.9786  19.4233
    22.0928

          k = 0.6909-0.1382 0.6909 (   949 PWs)   bands (ev):

  -114.9355 -69.1321 -69.1312 -69.1305  -8.5941   2.9093   3.2873   3.5214
     4.0867   4.1222   4.6220   6.2544   7.3088  15.6501  16.2853  18.9306
    22.1027

          k = 0.5527 0.0000 0.5527 (   931 PWs)   bands (ev):

  -114.9355 -69.1316 -69.1309 -69.1302  -8.7216   2.9646   3.0274   3.1691
     4.0213   4.1738   5.3319   6.4675   7.7188  14.2628  17.7860  18.6881
    22.2641

          k = 0.0000 0.8291-0.0000 (   950 PWs)   bands (ev):

  -114.9355 -69.1320 -69.1308 -69.1308  -8.6377   2.3859   3.4794   3.4794
     3.9563   4.1832   5.7632   6.7002   6.7002  13.5040  17.5604  20.2167
    22.4159

          k = 0.9673-0.1382 0.9673 (   955 PWs)   bands (ev):

  -114.9355 -69.1324 -69.1310 -69.1309  -8.5365   2.4862   3.5634   3.6141
     4.1288   4.1820   5.2293   6.2303   6.5557  14.1369  17.2951  19.6780
    22.4820

          k = 0.8291-0.0000 0.8291 (   955 PWs)   bands (ev):

  -114.9355 -69.1322 -69.1314 -69.1308  -8.5195   2.7087   3.4760   3.8088
     4.1279   4.4204   4.4568   5.8683   6.8258  15.1789  16.9122  19.0238
    22.3293

          k =-0.0000-1.1055 0.0000 (   950 PWs)   bands (ev):

  -114.9355 -69.1326 -69.1309 -69.1309  -8.5045   2.3938   3.6724   3.6724
     4.0767   4.2043   5.2966   6.3244   6.3244  13.7775  17.2692  19.8450
    22.6477

          k =-0.2764 0.5527 0.0000 (   947 PWs)   bands (ev):

  -114.9356 -69.1315 -69.1305 -69.1302  -8.8847   2.5974   3.0889   3.1444
     3.9851   4.1406   6.0490   7.1451   7.7768  12.8883  18.5755  19.9119
    22.2147

          k = 0.6909-0.4146 0.9673 (   942 PWs)   bands (ev):

  -114.9355 -69.1319 -69.1309 -69.1303  -8.6889   2.8050   3.1172   3.3118
     4.0552   4.1759   5.1312   6.6802   7.4388  14.3328  17.3493  19.3228
    21.9027

          k = 0.5527-0.2764 0.8291 (   948 PWs)   bands (ev):

  -114.9355 -69.1323 -69.1310 -69.1304  -8.6060   2.9580   3.1545   3.5046
     4.0669   4.3008   4.4021   6.5994   7.2380  15.4709  16.2149  19.3765
    21.6852

          k = 0.8291-0.2764 1.1055 (   944 PWs)   bands (ev):

  -114.9355 -69.1320 -69.1309 -69.1306  -8.6149   2.5764   3.3375   3.5138
     4.0603   4.1794   5.3990   6.3818   6.8692  14.2394  17.5188  19.4622
    21.7234

          k = 0.6909-0.1382 0.9673 (   944 PWs)   bands (ev):

  -114.9355 -69.1321 -69.1312 -69.1307  -8.5329   2.7862   3.3793   3.7124
     4.0637   4.3676   4.7025   5.9738   6.7129  15.3732  17.0156  19.0591
    21.1374

          k = 0.5527-0.0000 0.8291 (   944 PWs)   bands (ev):

  -114.9355 -69.1319 -69.1314 -69.1305  -8.5642   2.9109   3.2378   3.6841
     4.0134   4.2077   4.8399   5.9437   7.0134  15.6487  16.8598  18.6382
    21.4462

          k =-0.2764-1.1055 0.0000 (   952 PWs)   bands (ev):

  -114.9355 -69.1323 -69.1312 -69.1309  -8.5028   2.5823   3.6119   3.6368
     4.1494   4.2772   5.0496   5.9858   6.3853  14.6011  17.2724  19.6590
    21.2168

          k =-0.5527-1.1055 0.0000 (   952 PWs)   bands (ev):

  -114.9355 -69.1319 -69.1316 -69.1308  -8.5010   2.8547   3.5372   3.5724
     4.0573   4.5267   4.8416   5.5974   6.4270  15.7276  17.2771  19.5309
    19.6482

     the Fermi energy is     8.8532 ev

!    total energy              =    -493.91555121 Ry
     Harris-Foulkes estimate   =    -493.91555121 Ry
     estimated scf accuracy    <          6.6E-12 Ry

     The total energy is the sum of the following terms:

     one-electron contribution =    -405.19813841 Ry
     hartree contribution      =     213.24093069 Ry
     xc contribution           =     -49.60079807 Ry
     ewald contribution        =    -252.35754542 Ry
     smearing contrib. (-TS)   =      -0.00000000 Ry

     convergence has been achieved in  18 iterations

     Forces acting on atoms (cartesian axes, Ry/au):

     atom    1 type  1   force =    -0.00000000   -0.00000000    0.00000000
     atom    2 type  2   force =    -0.00000000   -0.00000000    0.00000000

     Total force =     0.000000     Total SCF correction =     0.000000


     Computing stress (Cartesian axis) and pressure

          total   stress  (Ry/bohr**3)                   (kbar)     P=   18.93
   0.00012870  -0.00000000   0.00000000         18.93     -0.00      0.00
  -0.00000000   0.00012870  -0.00000000         -0.00     18.93     -0.00
   0.00000000  -0.00000000   0.00012870          0.00     -0.00     18.93


     number of scf cycles    =   4
     number of bfgs steps    =   3

     enthalpy old            =    -493.9150387574 Ry
     enthalpy new            =    -493.9155512087 Ry

     CASE: enthalpy_new < enthalpy_old

     new trust radius        =       0.0124756798 bohr
     new conv_thr            =            1.0E-10 Ry

     new unit-cell volume =    166.12338 a.u.^3 (    24.61694 Ang^3 )
     density =      5.49013 g/cm^3

CELL_PARAMETERS (alat=  9.60000000)
  -0.454494904   0.000000000   0.454494904
  -0.000000000   0.454494904   0.454494904
  -0.454494904   0.454494904   0.000000000

ATOMIC_POSITIONS (crystal)
Zn      -0.000000000  -0.000000000   0.000000000
O        0.250000000   0.250000000   0.250000000



     Writing output data file ZnO.ZB.relax.save/
     NEW-OLD atomic charge density approx. for the potential

     Check: negative/imaginary core charge=   -0.000003    0.000000
     extrapolated charge   26.37658, renormalised to   26.00000

     total cpu time spent up to now is       17.0 secs

     Self-consistent Calculation

     iteration #  1     ecut=    40.00 Ry     beta= 0.70
     Davidson diagonalization with overlap
     ethr =  1.00E-06,  avg # of iterations =  4.0

     total cpu time spent up to now is       17.5 secs

     total energy              =    -493.50941599 Ry
     Harris-Foulkes estimate   =    -488.71166057 Ry
     estimated scf accuracy    <       0.33674363 Ry

     iteration #  2     ecut=    40.00 Ry     beta= 0.70
     Davidson diagonalization with overlap
     ethr =  1.30E-03,  avg # of iterations =  3.0

     total cpu time spent up to now is       17.9 secs

     total energy              =    -493.85734883 Ry
     Harris-Foulkes estimate   =    -494.36447985 Ry
     estimated scf accuracy    <       1.32041816 Ry

     iteration #  3     ecut=    40.00 Ry     beta= 0.70
     Davidson diagonalization with overlap
     ethr =  1.30E-03,  avg # of iterations =  2.0

     total cpu time spent up to now is       18.3 secs

     total energy              =    -493.94192185 Ry
     Harris-Foulkes estimate   =    -493.97050402 Ry
     estimated scf accuracy    <       0.17751745 Ry

     iteration #  4     ecut=    40.00 Ry     beta= 0.70
     Davidson diagonalization with overlap
     ethr =  6.83E-04,  avg # of iterations =  1.0

     total cpu time spent up to now is       18.5 secs

     total energy              =    -493.92528605 Ry
     Harris-Foulkes estimate   =    -493.94477818 Ry
     estimated scf accuracy    <       0.09792220 Ry

     iteration #  5     ecut=    40.00 Ry     beta= 0.70
     Davidson diagonalization with overlap
     ethr =  3.77E-04,  avg # of iterations =  1.0

     total cpu time spent up to now is       18.8 secs

     total energy              =    -493.91750987 Ry
     Harris-Foulkes estimate   =    -493.92775907 Ry
     estimated scf accuracy    <       0.04141783 Ry

     iteration #  6     ecut=    40.00 Ry     beta= 0.70
     Davidson diagonalization with overlap
     ethr =  1.59E-04,  avg # of iterations =  1.0

     total cpu time spent up to now is       19.0 secs

     total energy              =    -493.91678746 Ry
     Harris-Foulkes estimate   =    -493.91920723 Ry
     estimated scf accuracy    <       0.01245339 Ry

     iteration #  7     ecut=    40.00 Ry     beta= 0.70
     Davidson diagonalization with overlap
     ethr =  4.79E-05,  avg # of iterations =  1.0

     total cpu time spent up to now is       19.3 secs

     total energy              =    -493.91714250 Ry
     Harris-Foulkes estimate   =    -493.91716165 Ry
     estimated scf accuracy    <       0.00498413 Ry

     iteration #  8     ecut=    40.00 Ry     beta= 0.70
     Davidson diagonalization with overlap
     ethr =  1.92E-05,  avg # of iterations =  1.0

     total cpu time spent up to now is       19.5 secs

     total energy              =    -493.91930386 Ry
     Harris-Foulkes estimate   =    -493.91715787 Ry
     estimated scf accuracy    <       0.00526893 Ry

     iteration #  9     ecut=    40.00 Ry     beta= 0.70
     Davidson diagonalization with overlap
     ethr =  1.92E-05,  avg # of iterations =  2.0

     total cpu time spent up to now is       19.8 secs

     total energy              =    -493.91471452 Ry
     Harris-Foulkes estimate   =    -493.91969010 Ry
     estimated scf accuracy    <       0.01370546 Ry

     iteration # 10     ecut=    40.00 Ry     beta= 0.70
     Davidson diagonalization with overlap
     ethr =  1.92E-05,  avg # of iterations =  2.0

     total cpu time spent up to now is       20.1 secs

     total energy              =    -493.91562473 Ry
     Harris-Foulkes estimate   =    -493.91603642 Ry
     estimated scf accuracy    <       0.00121230 Ry

     iteration # 11     ecut=    40.00 Ry     beta= 0.70
     Davidson diagonalization with overlap
     ethr =  4.66E-06,  avg # of iterations =  2.0

     total cpu time spent up to now is       20.4 secs

     total energy              =    -493.91572210 Ry
     Harris-Foulkes estimate   =    -493.91573095 Ry
     estimated scf accuracy    <       0.00013931 Ry

     iteration # 12     ecut=    40.00 Ry     beta= 0.70
     Davidson diagonalization with overlap
     ethr =  5.36E-07,  avg # of iterations =  1.0

     total cpu time spent up to now is       20.6 secs

     total energy              =    -493.91572141 Ry
     Harris-Foulkes estimate   =    -493.91572418 Ry
     estimated scf accuracy    <       0.00010672 Ry

     iteration # 13     ecut=    40.00 Ry     beta= 0.70
     Davidson diagonalization with overlap
     ethr =  4.10E-07,  avg # of iterations =  1.0

     total cpu time spent up to now is       20.8 secs

     total energy              =    -493.91571700 Ry
     Harris-Foulkes estimate   =    -493.91572151 Ry
     estimated scf accuracy    <       0.00009535 Ry

     iteration # 14     ecut=    40.00 Ry     beta= 0.70
     Davidson diagonalization with overlap
     ethr =  3.67E-07,  avg # of iterations =  1.0

     total cpu time spent up to now is       21.0 secs

     total energy              =    -493.91570533 Ry
     Harris-Foulkes estimate   =    -493.91571711 Ry
     estimated scf accuracy    <       0.00008032 Ry

     iteration # 15     ecut=    40.00 Ry     beta= 0.70
     Davidson diagonalization with overlap
     ethr =  3.09E-07,  avg # of iterations =  1.0

     total cpu time spent up to now is       21.3 secs

     total energy              =    -493.91570526 Ry
     Harris-Foulkes estimate   =    -493.91570648 Ry
     estimated scf accuracy    <       0.00004281 Ry

     iteration # 16     ecut=    40.00 Ry     beta= 0.70
     Davidson diagonalization with overlap
     ethr =  1.65E-07,  avg # of iterations =  1.0

     total cpu time spent up to now is       21.5 secs

     total energy              =    -493.91568601 Ry
     Harris-Foulkes estimate   =    -493.91570532 Ry
     estimated scf accuracy    <       0.00003792 Ry

     iteration # 17     ecut=    40.00 Ry     beta= 0.70
     Davidson diagonalization with overlap
     ethr =  1.46E-07,  avg # of iterations =  2.0

     total cpu time spent up to now is       21.7 secs

     total energy              =    -493.91569521 Ry
     Harris-Foulkes estimate   =    -493.91569515 Ry
     estimated scf accuracy    <       0.00000157 Ry

     iteration # 18     ecut=    40.00 Ry     beta= 0.70
     Davidson diagonalization with overlap
     ethr =  6.03E-09,  avg # of iterations =  1.0

     total cpu time spent up to now is       21.8 secs

     total energy              =    -493.91569499 Ry
     Harris-Foulkes estimate   =    -493.91569522 Ry
     estimated scf accuracy    <       0.00000166 Ry

     iteration # 19     ecut=    40.00 Ry     beta= 0.70
     Davidson diagonalization with overlap
     ethr =  6.03E-09,  avg # of iterations =  1.0

     total cpu time spent up to now is       22.1 secs

     total energy              =    -493.91569472 Ry
     Harris-Foulkes estimate   =    -493.91569502 Ry
     estimated scf accuracy    <       0.00000086 Ry

     iteration # 20     ecut=    40.00 Ry     beta= 0.70
     Davidson diagonalization with overlap
     ethr =  3.30E-09,  avg # of iterations =  2.0

     total cpu time spent up to now is       22.4 secs

     total energy              =    -493.91569481 Ry
     Harris-Foulkes estimate   =    -493.91569481 Ry
     estimated scf accuracy    <       0.00000004 Ry

     iteration # 21     ecut=    40.00 Ry     beta= 0.70
     Davidson diagonalization with overlap
     ethr =  1.64E-10,  avg # of iterations =  1.9

     total cpu time spent up to now is       22.7 secs

     total energy              =    -493.91569480 Ry
     Harris-Foulkes estimate   =    -493.91569481 Ry
     estimated scf accuracy    <       0.00000002 Ry

     iteration # 22     ecut=    40.00 Ry     beta= 0.70
     Davidson diagonalization with overlap
     ethr =  8.72E-11,  avg # of iterations =  1.6

     total cpu time spent up to now is       22.9 secs

     total energy              =    -493.91569480 Ry
     Harris-Foulkes estimate   =    -493.91569480 Ry
     estimated scf accuracy    <          4.9E-09 Ry

     iteration # 23     ecut=    40.00 Ry     beta= 0.70
     Davidson diagonalization with overlap
     ethr =  1.87E-11,  avg # of iterations =  1.0

     total cpu time spent up to now is       23.2 secs

     total energy              =    -493.91569480 Ry
     Harris-Foulkes estimate   =    -493.91569481 Ry
     estimated scf accuracy    <          8.9E-09 Ry

     iteration # 24     ecut=    40.00 Ry     beta= 0.70
     Davidson diagonalization with overlap
     ethr =  1.87E-11,  avg # of iterations =  1.0

     total cpu time spent up to now is       23.4 secs

     total energy              =    -493.91569480 Ry
     Harris-Foulkes estimate   =    -493.91569480 Ry
     estimated scf accuracy    <          4.4E-09 Ry

     iteration # 25     ecut=    40.00 Ry     beta= 0.70
     Davidson diagonalization with overlap
     ethr =  1.69E-11,  avg # of iterations =  2.0

     total cpu time spent up to now is       23.7 secs

     total energy              =    -493.91569480 Ry
     Harris-Foulkes estimate   =    -493.91569480 Ry
     estimated scf accuracy    <          1.2E-09 Ry

     iteration # 26     ecut=    40.00 Ry     beta= 0.70
     Davidson diagonalization with overlap
     ethr =  4.59E-12,  avg # of iterations =  2.0

     total cpu time spent up to now is       24.0 secs

     End of self-consistent calculation

          k = 0.0000 0.0000 0.0000 (   941 PWs)   bands (ev):

  -115.1552 -69.3487 -69.3487 -69.3487  -9.5078   2.6555   2.6555   2.6555
     3.8460   3.8460   8.2624   8.2624   8.2624   8.9211  21.5210  21.5210
    21.5210

          k =-0.1375 0.1375-0.1375 (   932 PWs)   bands (ev):

  -115.1551 -69.3489 -69.3487 -69.3487  -9.4169   2.5899   2.7000   2.7000
     3.8399   3.8399   7.2633   8.1537   8.1537  10.0182  20.3216  21.6369
    21.6369

          k =-0.2750 0.2750-0.2750 (   941 PWs)   bands (ev):

  -115.1551 -69.3500 -69.3488 -69.3488  -9.1903   2.5176   2.7976   2.7976
     3.8457   3.8457   5.9919   7.8885   7.8885  11.5035  18.3714  21.6702
    21.6702

          k =-0.4125 0.4125-0.4125 (   941 PWs)   bands (ev):

  -115.1550 -69.3508 -69.3490 -69.3490  -8.9529   2.6463   2.8742   2.8742
     3.8923   3.8923   4.7952   7.6141   7.6141  12.9070  16.8154  21.4067
    21.4067

          k = 0.5501-0.5501 0.5501 (   960 PWs)   bands (ev):

  -115.1550 -69.3514 -69.3492 -69.3492  -8.8511   2.8617   2.8976   2.8976
     3.9271   3.9271   4.1679   7.4957   7.4957  13.6310  16.0941  21.2472
    21.2472

          k = 0.0000 0.2750-0.0000 (   937 PWs)   bands (ev):

  -115.1551 -69.3489 -69.3488 -69.3488  -9.3869   2.5342   2.7353   2.7353
     3.8050   3.8662   7.2800   7.9807   7.9807  10.2978  20.3600  21.4976
    21.4976

          k =-0.1375 0.4125-0.1375 (   941 PWs)   bands (ev):

  -115.1551 -69.3497 -69.3490 -69.3489  -9.2063   2.4513   2.8267   2.8390
     3.7817   3.8857   6.3817   7.6664   7.7403  11.4710  18.9506  21.1468
    21.5439

          k =-0.2750 0.5501-0.2750 (   956 PWs)   bands (ev):

  -115.1551 -69.3507 -69.3492 -69.3492  -8.9724   2.5376   2.9124   2.9336
     3.8303   3.9189   5.2126   7.3864   7.4046  12.8995  17.3599  20.4742
    21.4826

          k = 0.6876-0.4125 0.6876 (   942 PWs)   bands (ev):

  -115.1550 -69.3511 -69.3493 -69.3491  -8.8243   2.7865   2.9662   3.0112
     3.9296   3.9549   4.2575   7.0914   7.3121  14.0991  16.1675  20.1445
    21.3974

          k = 0.5501-0.2750 0.5501 (   943 PWs)   bands (ev):

  -115.1550 -69.3509 -69.3494 -69.3490  -8.8578   2.8265   2.8831   2.9413
     3.8702   3.9528   4.5222   6.9868   7.4978  13.8344  16.4785  19.9817
    21.5583

          k = 0.4125-0.1375 0.4125 (   945 PWs)   bands (ev):

  -115.1551 -69.3504 -69.3492 -69.3489  -9.0505   2.5548   2.8533   2.8622
     3.8072   3.9098   5.5847   7.1854   7.8209  12.4742  17.9441  20.0529
    21.9637

          k = 0.2750 0.0000 0.2750 (   941 PWs)   bands (ev):

  -115.1551 -69.3495 -69.3490 -69.3486  -9.2809   2.5197   2.7572   2.7801
     3.8064   3.8666   6.6179   7.6678   8.0886  11.0219  19.4603  20.7403
    22.0169

          k = 0.0000 0.5501-0.0000 (   950 PWs)   bands (ev):

  -115.1551 -69.3500 -69.3492 -69.3492  -9.0891   2.3235   2.9679   2.9679
     3.7265   3.9150   6.3509   7.2768   7.2768  12.0473  18.5011  21.5299
    21.6706

          k =-0.1375 0.6876-0.1375 (   947 PWs)   bands (ev):

  -115.1550 -69.3504 -69.3494 -69.3494  -8.9029   2.3430   3.0998   3.1016
     3.7653   3.9419   5.6218   6.8535   6.9356  13.0774  17.6333  19.8756
    21.7820

          k = 0.8251-0.2750 0.8251 (   948 PWs)   bands (ev):

  -115.1550 -69.3508 -69.3497 -69.3495  -8.7569   2.5610   3.1517   3.2619
     3.9393   3.9696   4.6126   6.3695   6.8555  14.4008  16.6681  19.1256
    21.7627

          k = 0.6876-0.1375 0.6876 (   949 PWs)   bands (ev):

  -115.1550 -69.3508 -69.3500 -69.3493  -8.7410   2.7473   3.1061   3.3629
     3.8709   3.9163   4.4044   6.0538   7.0985  15.3398  16.0150  18.6257
    21.7765

          k = 0.5501 0.0000 0.5501 (   931 PWs)   bands (ev):

  -115.1550 -69.3504 -69.3497 -69.3490  -8.8644   2.8100   2.8608   2.9908
     3.8077   3.9560   5.1132   6.2689   7.4998  13.9700  17.4925  18.3967
    21.9369

          k = 0.0000 0.8251 0.0000 (   950 PWs)   bands (ev):

  -115.1550 -69.3507 -69.3496 -69.3496  -8.7831   2.2429   3.2933   3.2933
     3.7468   3.9639   5.5397   6.5027   6.5027  13.2538  17.2207  19.9520
    22.0714

          k = 0.9626-0.1375 0.9626 (   955 PWs)   bands (ev):

  -115.1550 -69.3511 -69.3498 -69.3497  -8.6852   2.3420   3.3744   3.4232
     3.9164   3.9628   5.0240   6.0366   6.3621  13.8916  16.9456  19.4018
    22.1366

          k = 0.8251 0.0000 0.8251 (   955 PWs)   bands (ev):

  -115.1550 -69.3509 -69.3502 -69.3496  -8.6688   2.5564   3.2897   3.6080
     3.9106   4.2252   4.2638   5.6701   6.6258  14.9300  16.5674  18.7285
    21.9920

          k =-0.0000-1.1001 0.0000 (   950 PWs)   bands (ev):

  -115.1550 -69.3512 -69.3497 -69.3497  -8.6543   2.2526   3.4796   3.4796
     3.8641   3.9842   5.0843   6.1368   6.1368  13.5417  16.9136  19.5787
    22.2956

          k =-0.2750 0.5501-0.0000 (   947 PWs)   bands (ev):

  -115.1551 -69.3503 -69.3493 -69.3490  -9.0223   2.4464   2.9143   2.9680
     3.7730   3.9227   5.8230   6.9367   7.5551  12.6144  18.2573  19.6295
    21.8822

          k = 0.6876-0.4125 0.9626 (   942 PWs)   bands (ev):

  -115.1550 -69.3506 -69.3497 -69.3492  -8.8328   2.6529   2.9443   3.1353
     3.8414   3.9580   4.9184   6.4770   7.2242  14.0456  17.0517  19.0282
    21.5768

          k = 0.5501-0.2750 0.8251 (   948 PWs)   bands (ev):

  -115.1550 -69.3510 -69.3498 -69.3492  -8.7526   2.7956   2.9839   3.3398
     3.8531   4.0985   4.1762   6.3950   7.0284  15.1590  15.9464  19.0713
    21.3631

          k = 0.8251-0.2750 1.1001 (   944 PWs)   bands (ev):

  -115.1550 -69.3507 -69.3497 -69.3494  -8.7611   2.4292   3.1564   3.3283
     3.8481   3.9609   5.1852   6.1900   6.6633  13.9758  17.1838  19.1854
    21.3891

          k = 0.6876-0.1375 0.9626 (   944 PWs)   bands (ev):

  -115.1550 -69.3508 -69.3500 -69.3495  -8.6817   2.6315   3.1986   3.5231
     3.8510   4.1508   4.5067   5.7837   6.5095  15.1129  16.6780  18.7648
    20.8129

          k = 0.5501 0.0000 0.8251 (   944 PWs)   bands (ev):

  -115.1550 -69.3506 -69.3502 -69.3493  -8.7121   2.7500   3.0641   3.5050
     3.8016   3.9972   4.6272   5.7530   6.8058  15.3651  16.5518  18.3400
    21.1215

          k =-0.2750-1.1001 0.0000 (   952 PWs)   bands (ev):

[...]
     The G-vectors are recalculated for the final unit cell
     Results may differ from those at the preceding step.
 
     Parallelization info
     --------------------
     sticks:   dense  smooth     PW     G-vecs:    dense   smooth      PW
     Min         128     105     34                 1955     1441     266
     Max         131     106     35                 1956     1445     267
     Sum         517     421    139                 7823     5769    1067
 


     bravais-lattice index     =            2
     lattice parameter (alat)  =       9.6000  a.u.
     unit-cell volume          =     166.0052 (a.u.)^3
     number of atoms/cell      =            2
     number of atomic types    =            2
     number of electrons       =        26.00
     number of Kohn-Sham states=           17
     kinetic-energy cutoff     =      40.0000  Ry
     charge density cutoff     =     200.0000  Ry
     convergence threshold     =      1.0E-10
     mixing beta               =       0.7000
     number of iterations used =            8  plain     mixing
     Exchange-correlation      = SLA  PW   PBE  PBE ( 1  4  3  4 0 0)

     celldm(1)=   9.600000  celldm(2)=   0.000000  celldm(3)=   0.000000
     celldm(4)=   0.000000  celldm(5)=   0.000000  celldm(6)=   0.000000

     crystal axes: (cart. coord. in units of alat)
               a(1) = (  -0.454387   0.000000   0.454387 )  
               a(2) = (  -0.000000   0.454387   0.454387 )  
               a(3) = (  -0.454387   0.454387   0.000000 )  

     reciprocal axes: (cart. coord. in units 2 pi/alat)
               b(1) = ( -1.100383 -1.100383  1.100383 )  
               b(2) = (  1.100383  1.100383  1.100383 )  
               b(3) = ( -1.100383  1.100383 -1.100383 )  


     PseudoPot. # 1 for Zn read from file:
     ./Zn.GGA-PBE-paw.UPF
     MD5 check sum: df62231357ef9e81f77b2b3087fa5675
     Pseudo is Ultrasoft, Zval = 20.0
     Generated by new atomic code, or converted to UPF format
     Using radial grid of  943 points,  6 beta functions with: 
                l(1) =   0
                l(2) =   0
                l(3) =   1
                l(4) =   1
                l(5) =   2
                l(6) =   2
     Q(r) pseudized with  8 coefficients,  rinner =    1.100   1.100   1.100
                                                       1.100   1.100

     PseudoPot. # 2 for O  read from file:
     ./O.GGA-PBE-paw.UPF
     MD5 check sum: 734c27235a0248c51dbae37a1fbe46ec
     Pseudo is Ultrasoft + core correction, Zval =  6.0
     Generated by new atomic code, or converted to UPF format
     Using radial grid of  737 points,  5 beta functions with: 
                l(1) =   0
                l(2) =   0
                l(3) =   1
                l(4) =   1
                l(5) =   2
     Q(r) pseudized with  8 coefficients,  rinner =    0.900   0.900   0.900
                                                       0.900   0.900

     atomic species   valence    mass     pseudopotential
        Zn            20.00    65.39000     Zn( 1.00)
        O              6.00    15.99940     O ( 1.00)

     24 Sym. Ops. (no inversion) found



   Cartesian axes

     site n.     atom                  positions (alat units)
         1           Zn  tau(   1) = (  -0.0000000   0.0000000  -0.0000000  )
         2           O   tau(   2) = (  -0.2271936   0.2271936   0.2271936  )

     number of k points=    29  Fermi-Dirac smearing, width (Ry)=  0.0020
                       cart. coord. in units 2pi/alat
        k(    1) = (   0.0000000   0.0000000   0.0000000), wk =   0.0039062
        k(    2) = (  -0.1375479   0.1375479  -0.1375479), wk =   0.0312500
        k(    3) = (  -0.2750958   0.2750958  -0.2750958), wk =   0.0312500
        k(    4) = (  -0.4126437   0.4126437  -0.4126437), wk =   0.0312500
        k(    5) = (   0.5501916  -0.5501916   0.5501916), wk =   0.0156250
        k(    6) = (   0.0000000   0.2750958  -0.0000000), wk =   0.0234375
        k(    7) = (  -0.1375479   0.4126437  -0.1375479), wk =   0.0937500
        k(    8) = (  -0.2750958   0.5501916  -0.2750958), wk =   0.0937500
        k(    9) = (   0.6877395  -0.4126437   0.6877395), wk =   0.0937500
        k(   10) = (   0.5501916  -0.2750958   0.5501916), wk =   0.0937500
        k(   11) = (   0.4126437  -0.1375479   0.4126437), wk =   0.0937500
        k(   12) = (   0.2750958   0.0000000   0.2750958), wk =   0.0468750
        k(   13) = (   0.0000000   0.5501916  -0.0000000), wk =   0.0234375
        k(   14) = (  -0.1375479   0.6877395  -0.1375479), wk =   0.0937500
        k(   15) = (   0.8252874  -0.2750958   0.8252874), wk =   0.0937500
        k(   16) = (   0.6877395  -0.1375479   0.6877395), wk =   0.0937500
        k(   17) = (   0.5501916   0.0000000   0.5501916), wk =   0.0468750
        k(   18) = (   0.0000000   0.8252874   0.0000000), wk =   0.0234375
        k(   19) = (   0.9628353  -0.1375479   0.9628353), wk =   0.0937500
        k(   20) = (   0.8252874   0.0000000   0.8252874), wk =   0.0468750
        k(   21) = (  -0.0000000  -1.1003832   0.0000000), wk =   0.0117188
        k(   22) = (  -0.2750958   0.5501916  -0.0000000), wk =   0.0937500
        k(   23) = (   0.6877395  -0.4126437   0.9628353), wk =   0.1875000
        k(   24) = (   0.5501916  -0.2750958   0.8252874), wk =   0.0937500
        k(   25) = (   0.8252874  -0.2750958   1.1003832), wk =   0.0937500
        k(   26) = (   0.6877395  -0.1375479   0.9628353), wk =   0.1875000
        k(   27) = (   0.5501916   0.0000000   0.8252874), wk =   0.0937500
        k(   28) = (  -0.2750958  -1.1003832   0.0000000), wk =   0.0468750
        k(   29) = (  -0.5501916  -1.1003832  -0.0000000), wk =   0.0234375

     Dense  grid:     7823 G-vectors     FFT dimensions: (  27,  27,  27)

     Smooth grid:     5769 G-vectors     FFT dimensions: (  25,  25,  25)

     Estimated max dynamical RAM per process >      15.66 MB

     Estimated total dynamical RAM >      62.62 MB

     Check: negative/imaginary core charge=   -0.000003    0.000000

     Initial potential from superposition of free atoms

     starting charge   25.99986, renormalised to   26.00000
     Starting wfcs are   17 randomized atomic wfcs

     total cpu time spent up to now is       27.3 secs

     Self-consistent Calculation

     iteration #  1     ecut=    40.00 Ry     beta= 0.70
     Davidson diagonalization with overlap
     ethr =  1.00E-06,  avg # of iterations =  6.2

     total cpu time spent up to now is       27.7 secs

     total energy              =    -493.69359144 Ry
     Harris-Foulkes estimate   =    -494.03322120 Ry
     estimated scf accuracy    <       0.44344351 Ry

     iteration #  2     ecut=    40.00 Ry     beta= 0.70
     Davidson diagonalization with overlap
     ethr =  1.71E-03,  avg # of iterations =  2.1

     total cpu time spent up to now is       27.9 secs

     total energy              =    -493.75769062 Ry
     Harris-Foulkes estimate   =    -494.11744178 Ry
     estimated scf accuracy    <       0.82297528 Ry

     iteration #  3     ecut=    40.00 Ry     beta= 0.70
     Davidson diagonalization with overlap
     ethr =  1.71E-03,  avg # of iterations =  2.0

     total cpu time spent up to now is       28.0 secs

     total energy              =    -493.91269965 Ry
     Harris-Foulkes estimate   =    -493.91545904 Ry
     estimated scf accuracy    <       0.00542864 Ry

     iteration #  4     ecut=    40.00 Ry     beta= 0.70
     Davidson diagonalization with overlap
     ethr =  2.09E-05,  avg # of iterations =  2.0

     total cpu time spent up to now is       28.2 secs

     total energy              =    -493.91393980 Ry
     Harris-Foulkes estimate   =    -493.91464839 Ry
     estimated scf accuracy    <       0.00176579 Ry

     iteration #  5     ecut=    40.00 Ry     beta= 0.70
     Davidson diagonalization with overlap
     ethr =  6.79E-06,  avg # of iterations =  2.0

     total cpu time spent up to now is       28.4 secs

     total energy              =    -493.91423931 Ry
     Harris-Foulkes estimate   =    -493.91425511 Ry
     estimated scf accuracy    <       0.00003605 Ry

     iteration #  6     ecut=    40.00 Ry     beta= 0.70
     Davidson diagonalization with overlap
     ethr =  1.39E-07,  avg # of iterations =  1.7

     total cpu time spent up to now is       28.5 secs

     total energy              =    -493.91424383 Ry
     Harris-Foulkes estimate   =    -493.91424345 Ry
     estimated scf accuracy    <       0.00000045 Ry

     iteration #  7     ecut=    40.00 Ry     beta= 0.70
     Davidson diagonalization with overlap
     ethr =  1.75E-09,  avg # of iterations =  2.0

     total cpu time spent up to now is       28.7 secs

     total energy              =    -493.91424392 Ry
     Harris-Foulkes estimate   =    -493.91424393 Ry
     estimated scf accuracy    <       0.00000003 Ry

     iteration #  8     ecut=    40.00 Ry     beta= 0.70
     Davidson diagonalization with overlap
     ethr =  1.10E-10,  avg # of iterations =  1.1

     total cpu time spent up to now is       28.8 secs

     total energy              =    -493.91424393 Ry
     Harris-Foulkes estimate   =    -493.91424393 Ry
     estimated scf accuracy    <          2.8E-10 Ry

     iteration #  9     ecut=    40.00 Ry     beta= 0.70
     Davidson diagonalization with overlap
     ethr =  1.08E-12,  avg # of iterations =  2.0

     total cpu time spent up to now is       29.0 secs

     End of self-consistent calculation

          k = 0.0000 0.0000 0.0000 (   725 PWs)   bands (ev):

  -115.1391 -69.3331 -69.3331 -69.3331  -9.5019   2.6653   2.6653   2.6653
     3.8590   3.8590   8.2754   8.2754   8.2754   8.9334  21.5372  21.5372
    21.5372

          k =-0.1375 0.1375-0.1375 (   712 PWs)   bands (ev):

  -115.1391 -69.3335 -69.3332 -69.3332  -9.4109   2.5993   2.7098   2.7098
     3.8527   3.8527   7.2761   8.1666   8.1666  10.0309  20.3373  21.6533
    21.6533

          k =-0.2751 0.2751-0.2751 (   703 PWs)   bands (ev):

  -115.1390 -69.3343 -69.3334 -69.3334  -9.1839   2.5264   2.8077   2.8077
     3.8586   3.8586   6.0045   7.9011   7.9011  11.5169  18.3865  21.6867
    21.6867

          k =-0.4126 0.4126-0.4126 (   715 PWs)   bands (ev):

  -115.1390 -69.3351 -69.3335 -69.3335  -8.9461   2.6540   2.8844   2.8844
     3.9054   3.9054   4.8076   7.6262   7.6262  12.9209  16.8303  21.4230
    21.4230

          k = 0.5502-0.5502 0.5502 (   718 PWs)   bands (ev):

  -115.1389 -69.3354 -69.3335 -69.3335  -8.8441   2.8684   2.9079   2.9079
     3.9403   3.9403   4.1812   7.5078   7.5078  13.6452  16.1091  21.2633
    21.2633

          k = 0.0000 0.2751-0.0000 (   701 PWs)   bands (ev):

  -115.1390 -69.3335 -69.3333 -69.3333  -9.3809   2.5435   2.7452   2.7452
     3.8177   3.8792   7.2931   7.9934   7.9934  10.3107  20.3759  21.5139
    21.5139

          k =-0.1375 0.4126-0.1375 (   702 PWs)   bands (ev):

  -115.1390 -69.3341 -69.3334 -69.3334  -9.1999   2.4601   2.8367   2.8492
     3.7944   3.8987   6.3945   7.6788   7.7528  11.4843  18.9662  21.1627
    21.5603

          k =-0.2751 0.5502-0.2751 (   703 PWs)   bands (ev):

  -115.1390 -69.3348 -69.3336 -69.3336  -8.9656   2.5460   2.9225   2.9440
     3.8432   3.9321   5.2250   7.3984   7.4168  12.9135  17.3751  20.4900
    21.4991

          k = 0.6877-0.4126 0.6877 (   708 PWs)   bands (ev):

  -115.1389 -69.3353 -69.3337 -69.3336  -8.8173   2.7953   2.9766   3.0199
     3.9427   3.9678   4.2703   7.1033   7.3238  14.1136  16.1823  20.1603
    21.4137

          k = 0.5502-0.2751 0.5502 (   714 PWs)   bands (ev):

  -115.1389 -69.3352 -69.3338 -69.3335  -8.8508   2.8345   2.8929   2.9516
     3.8832   3.9659   4.5347   6.9985   7.5098  13.8488  16.4933  19.9973
    21.5747

          k = 0.4126-0.1375 0.4126 (   715 PWs)   bands (ev):

  -115.1390 -69.3346 -69.3337 -69.3334  -9.0439   2.5634   2.8634   2.8723
     3.8199   3.9229   5.5972   7.1973   7.8334  12.4880  17.9593  20.0683
    21.9805

          k = 0.2751 0.0000 0.2751 (   694 PWs)   bands (ev):

  -115.1390 -69.3339 -69.3334 -69.3333  -9.2747   2.5288   2.7671   2.7901
     3.8191   3.8796   6.6308   7.6803   8.1013  11.0351  19.4760  20.7560
    22.0338

          k = 0.0000 0.5502-0.0000 (   713 PWs)   bands (ev):

  -115.1390 -69.3343 -69.3336 -69.3336  -9.0825   2.3320   2.9783   2.9783
     3.7392   3.9281   6.3640   7.2887   7.2887  12.0606  18.5170  21.5447
    21.6872

          k =-0.1375 0.6877-0.1375 (   706 PWs)   bands (ev):

  -115.1389 -69.3348 -69.3338 -69.3338  -8.8961   2.3512   3.1104   3.1122
     3.7779   3.9551   5.6343   6.8651   6.9470  13.0910  17.6492  19.8905
    21.7988

          k = 0.8253-0.2751 0.8253 (   703 PWs)   bands (ev):

  -115.1389 -69.3351 -69.3341 -69.3338  -8.7498   2.5696   3.1625   3.2721
     3.9525   3.9824   4.6241   6.3810   6.8668  14.4149  16.6837  19.1409
    21.7795

          k = 0.6877-0.1375 0.6877 (   707 PWs)   bands (ev):

  -115.1389 -69.3350 -69.3343 -69.3337  -8.7339   2.7567   3.1168   3.3718
     3.8839   3.9285   4.4172   6.0649   7.1102  15.3552  16.0294  18.6412
    21.7932

          k = 0.5502 0.0000 0.5502 (   708 PWs)   bands (ev):

  -115.1389 -69.3348 -69.3342 -69.3336  -8.8575   2.8188   2.8702   3.0012
     3.8204   3.9691   5.1256   6.2799   7.5119  13.9846  17.5077  18.4114
    21.9537

          k = 0.0000 0.8253 0.0000 (   709 PWs)   bands (ev):

  -115.1389 -69.3351 -69.3339 -69.3339  -8.7761   2.2508   3.3044   3.3044
     3.7593   3.9772   5.5524   6.5136   6.5136  13.2670  17.2372  19.9663
    22.0887

          k = 0.9628-0.1375 0.9628 (   712 PWs)   bands (ev):

  -115.1389 -69.3352 -69.3341 -69.3340  -8.6780   2.3500   3.3858   3.4346
     3.9291   3.9761   5.0356   6.0474   6.3727  13.9049  16.9625  19.4164
    22.1540

          k = 0.8253 0.0000 0.8253 (   706 PWs)   bands (ev):

  -115.1389 -69.3350 -69.3345 -69.3339  -8.6615   2.5651   3.3009   3.6200
     3.9238   4.2387   4.2726   5.6813   6.6369  14.9436  16.5841  18.7438
    22.0091

          k =-0.0000-1.1004 0.0000 (   724 PWs)   bands (ev):

  -115.1389 -69.3353 -69.3341 -69.3341  -8.6470   2.2604   3.4913   3.4913
     3.8768   3.9975   5.0965   6.1470   6.1470  13.5546  16.9307  19.5930
    22.3132

          k =-0.2751 0.5502-0.0000 (   708 PWs)   bands (ev):

  -115.1390 -69.3345 -69.3338 -69.3335  -9.0157   2.4549   2.9245   2.9784
     3.7857   3.9359   5.8357   6.9483   7.5674  12.6282  18.2731  19.6442
    21.8991

          k = 0.6877-0.4126 0.9628 (   711 PWs)   bands (ev):

  -115.1389 -69.3350 -69.3340 -69.3337  -8.8258   2.6615   2.9543   3.1456
     3.8542   3.9712   4.9306   6.4883   7.2360  14.0600  17.0669  19.0433
    21.5935

          k = 0.5502-0.2751 0.8253 (   714 PWs)   bands (ev):

  -115.1389 -69.3351 -69.3341 -69.3337  -8.7455   2.8050   2.9938   3.3492
     3.8660   4.1104   4.1898   6.4063   7.0399  15.1742  15.9609  19.0868
    21.3796

          k = 0.8253-0.2751 1.1004 (   712 PWs)   bands (ev):

  -115.1389 -69.3350 -69.3341 -69.3339  -8.7541   2.4374   3.1670   3.3394
     3.8608   3.9742   5.1972   6.2006   6.6747  13.9896  17.2002  19.1999
    21.4061

          k = 0.6877-0.1375 0.9628 (   711 PWs)   bands (ev):

  -115.1389 -69.3350 -69.3344 -69.3339  -8.6745   2.6404   3.2092   3.5343
     3.8639   4.1637   4.5176   5.7942   6.5208  15.1269  16.6944  18.7799
    20.8294

          k = 0.5502 0.0000 0.8253 (   712 PWs)   bands (ev):

  -115.1389 -69.3349 -69.3345 -69.3338  -8.7049   2.7594   3.0741   3.5154
     3.8143   4.0097   4.6394   5.7636   6.8173  15.3799  16.5673  18.3551
    21.1381

          k =-0.2751-1.1004 0.0000 (   714 PWs)   bands (ev):

  -115.1389 -69.3352 -69.3342 -69.3341  -8.6453   2.4437   3.4293   3.4605
     3.9448   4.0729   4.8608   5.8175   6.1964  14.3699  16.9336  19.3965
    20.8958

          k =-0.5502-1.1004-0.0000 (   700 PWs)   bands (ev):

  -115.1389 -69.3348 -69.3346 -69.3341  -8.6436   2.7059   3.3737   3.3892
     3.8556   4.3089   4.6559   5.4458   6.2306  15.4882  16.9378  19.2631
    19.3397

     the Fermi energy is     8.6207 ev

!    total energy              =    -493.91424393 Ry
     Harris-Foulkes estimate   =    -493.91424393 Ry
     estimated scf accuracy    <          2.3E-11 Ry

     The total energy is the sum of the following terms:

     one-electron contribution =    -407.17671012 Ry
     hartree contribution      =     214.04242425 Ry
     xc contribution           =     -49.58716813 Ry
     ewald contribution        =    -251.19278992 Ry
     smearing contrib. (-TS)   =      -0.00000000 Ry

     convergence has been achieved in   9 iterations

     Forces acting on atoms (cartesian axes, Ry/au):

     atom    1 type  1   force =     0.00000000    0.00000000    0.00000000
     atom    2 type  2   force =     0.00000000    0.00000000    0.00000000

     Total force =     0.000000     Total SCF correction =     0.000000


     Computing stress (Cartesian axis) and pressure

          total   stress  (Ry/bohr**3)                   (kbar)     P=    7.48
   0.00005088   0.00000000   0.00000000          7.48      0.00      0.00
   0.00000000   0.00005088   0.00000000          0.00      7.48      0.00
  -0.00000000  -0.00000000   0.00005088         -0.00     -0.00      7.48


     Writing output data file ZnO.ZB.relax.save/
 
     init_run     :      0.51s CPU      0.55s WALL (       2 calls)
     electrons    :     24.93s CPU     26.24s WALL (       7 calls)
     update_pot   :      0.53s CPU      0.54s WALL (       5 calls)
     forces       :      0.47s CPU      0.47s WALL (       7 calls)
     stress       :      1.08s CPU      1.08s WALL (       7 calls)

     Called by init_run:
     wfcinit      :      0.11s CPU      0.14s WALL (       2 calls)
     potinit      :      0.03s CPU      0.03s WALL (       2 calls)
     hinit0       :      0.36s CPU      0.36s WALL (       2 calls)

     Called by electrons:
     c_bands      :     19.70s CPU     20.78s WALL (     104 calls)
     sum_band     :      4.19s CPU      4.40s WALL (     104 calls)
     v_of_rho     :      0.31s CPU      0.32s WALL (     111 calls)
     newd         :      0.68s CPU      0.69s WALL (     111 calls)
     mix_rho      :      0.06s CPU      0.06s WALL (     104 calls)

     Called by c_bands:
     init_us_2    :      0.42s CPU      0.44s WALL (    6496 calls)
     cegterg      :     18.26s CPU     19.29s WALL (    3016 calls)

     Called by sum_band:
     sum_band:bec :      0.02s CPU      0.02s WALL (    3016 calls)
     addusdens    :      0.70s CPU      0.71s WALL (     104 calls)

     Called by *egterg:
     h_psi        :     13.56s CPU     14.36s WALL (    8845 calls)
     s_psi        :      0.25s CPU      0.27s WALL (    8845 calls)
     g_psi        :      0.05s CPU      0.05s WALL (    5771 calls)
     cdiaghg      :      2.83s CPU      2.98s WALL (    8642 calls)

     Called by h_psi:
     h_psi:pot    :     13.51s CPU     14.31s WALL (    8845 calls)
     h_psi:calbec :      0.52s CPU      0.55s WALL (    8845 calls)
     vloc_psi     :     12.69s CPU     13.43s WALL (    8845 calls)
     add_vuspsi   :      0.26s CPU      0.29s WALL (    8845 calls)

     General routines
     calbec       :      0.81s CPU      0.86s WALL (   12876 calls)
     fft          :      0.26s CPU      0.26s WALL (    1616 calls)
     ffts         :      0.02s CPU      0.02s WALL (     215 calls)
     fftw         :     14.24s CPU     15.08s WALL (  303454 calls)
     interpolate  :      0.02s CPU      0.02s WALL (     111 calls)
 
     Parallel routines
     fft_scatt_xy :      1.57s CPU      1.66s WALL (  305285 calls)
     fft_scatt_yz :      6.81s CPU      7.18s WALL (  305285 calls)
 
     PWSCF        :    27.69s CPU        29.11s WALL

 
   This run was terminated on:  12:18:30  13Jun2019            

=------------------------------------------------------------------------------=
   JOB DONE.
=------------------------------------------------------------------------------=
