===== VARIABLES =====
EXE_PATH = /scr/szymansk/2019-3/qe-bin/bin/pw.x
tpp = 4
Parallel keywords = -nimage 1
MPIRUN_EXE = orterun
PATH = /scr/szymansk/2019-3/mmshare-v4.7/lib/Linux-x86_64/openmpi/bin:/scr/szymansk/2019-3/internal/bin:/scr/szymansk/2019-3/mmshare-v4.7/bin/Linux-x86_64:/scr/szymansk/gaopaw/Examples/Be/workdir_pp.2:.:/scr/szymansk/gaopaw/Examples/Be:/home/szymansk/bin:/scr/szymansk/dakota/bin:/scr/szymansk/atompaw-4.1.0.5/src/:/usr/lib64/qt-3.3/bin:/usr/local/bin:/usr/local/sbin:/usr/bin:/usr/sbin:/bin:/sbin
LD_LIBRARY_PATH = /scr/szymansk/2019-3/mmshare-v4.7/lib/Linux-x86_64/openmpi/lib:/scr/szymansk/2019-3/internal/lib/ssl:/scr/szymansk/2019-3/internal/lib:/scr/szymansk/2019-3/mmshare-v4.7/lib/Linux-x86_64:/scr/szymansk/2019-3/internal/lib/python3.6/site-packages:/scr/szymansk/dakota/bin:/software/lib/Linux-x86_64/ifort_2017.1.132/mkl/lib/intel64
===== END VARIABLES =====
Invoking: exe_cmd () 
{ 
    "$MPIRUN_EXE" -np $tpp "$EXE_PATH" -in $input_file "${P_KEYWORDS[@]}"
}

     Program PWSCF v.6.3MaX starts on 16Jul2019 at 14:11: 0 

     This program is part of the open-source Quantum ESPRESSO suite
     for quantum simulation of materials; please cite
         "P. Giannozzi et al., J. Phys.:Condens. Matter 21 395502 (2009);
         "P. Giannozzi et al., J. Phys.:Condens. Matter 29 465901 (2017);
          URL http://www.quantum-espresso.org", 
     in publications or presentations arising from this work. More details at
     http://www.quantum-espresso.org/quote

     Parallel version (MPI), running on     4 processors

     MPI processes distributed on     1 nodes
     R & G space division:  proc/nbgrp/npool/nimage =       4
     Reading input from BeO.RS.relax.in

     Current dimensions of program PWSCF are:
     Max number of different atomic species (ntypx) = 10
     Max number of k-points (npk) =  40000
     Max angular momentum in pseudopotentials (lmaxx) =  3
               file O.GGA-PBE-paw.UPF: wavefunction(s)  Xn Xn Xn renormalized
               file Be.GGA-PBE-paw.UPF: wavefunction(s)  Xn Xn renormalized

     Subspace diagonalization in iterative solution of the eigenvalue problem:
     a serial algorithm will be used

 
     Parallelization info
     --------------------
     sticks:   dense  smooth     PW     G-vecs:    dense   smooth      PW
     Min          84      64     22                 1003      709     152
     Max          85      67     23                 1004      710     153
     Sum         337     265     91                 4015     2837     609
 


     bravais-lattice index     =            2
     lattice parameter (alat)  =       6.9500  a.u.
     unit-cell volume          =      83.9256 (a.u.)^3
     number of atoms/cell      =            2
     number of atomic types    =            2
     number of electrons       =        10.00
     number of Kohn-Sham states=            9
     kinetic-energy cutoff     =      40.0000  Ry
     charge density cutoff     =     200.0000  Ry
     convergence threshold     =      1.0E-08
     mixing beta               =       0.7000
     number of iterations used =            8  plain     mixing
     Exchange-correlation      = SLA PW PBX PBC ( 1  4  3  4 0 0)
     nstep                     =           50


     celldm(1)=   6.950000  celldm(2)=   0.000000  celldm(3)=   0.000000
     celldm(4)=   0.000000  celldm(5)=   0.000000  celldm(6)=   0.000000

     crystal axes: (cart. coord. in units of alat)
               a(1) = (  -0.500000   0.000000   0.500000 )  
               a(2) = (   0.000000   0.500000   0.500000 )  
               a(3) = (  -0.500000   0.500000   0.000000 )  

     reciprocal axes: (cart. coord. in units 2 pi/alat)
               b(1) = ( -1.000000 -1.000000  1.000000 )  
               b(2) = (  1.000000  1.000000  1.000000 )  
               b(3) = ( -1.000000  1.000000 -1.000000 )  


     PseudoPot. # 1 for O  read from file:
     ./O.GGA-PBE-paw.UPF
     MD5 check sum: 2c1db26b783d58193643af60ca72eab2
     Pseudo is Projector augmented-wave + core cor, Zval =  6.0
     Generated using ATOMPAW code
     Shape of augmentation charge: SINC**2
     Using radial grid of 2342 points,  4 beta functions with: 
                l(1) =   0
                l(2) =   0
                l(3) =   1
                l(4) =   1
     Q(r) pseudized with 0 coefficients 


     PseudoPot. # 2 for Be read from file:
     ./Be.GGA-PBE-paw.UPF
     MD5 check sum: 77d0fc34c2c508c4ac39018e9d9803b4
     Pseudo is Projector augmented-wave + core cor, Zval =  4.0
     Generated using ATOMPAW code
     Shape of augmentation charge: SINC**2
     Using radial grid of 2342 points,  4 beta functions with: 
                l(1) =   0
                l(2) =   0
                l(3) =   1
                l(4) =   1
     Q(r) pseudized with 0 coefficients 


     atomic species   valence    mass     pseudopotential
        O              6.00    15.99940     O ( 1.00)
        Be             4.00     9.01218     Be( 1.00)

     48 Sym. Ops., with inversion, found



   Cartesian axes

     site n.     atom                  positions (alat units)
         1           O   tau(   1) = (   0.0000000   0.0000000   0.0000000  )
         2           Be  tau(   2) = (  -0.5000000   0.5000000   0.5000000  )

     number of k points=    29  Fermi-Dirac smearing, width (Ry)=  0.0020
                       cart. coord. in units 2pi/alat
        k(    1) = (   0.0000000   0.0000000   0.0000000), wk =   0.0039062
        k(    2) = (  -0.1250000   0.1250000  -0.1250000), wk =   0.0312500
        k(    3) = (  -0.2500000   0.2500000  -0.2500000), wk =   0.0312500
        k(    4) = (  -0.3750000   0.3750000  -0.3750000), wk =   0.0312500
        k(    5) = (   0.5000000  -0.5000000   0.5000000), wk =   0.0156250
        k(    6) = (   0.0000000   0.2500000   0.0000000), wk =   0.0234375
        k(    7) = (  -0.1250000   0.3750000  -0.1250000), wk =   0.0937500
        k(    8) = (  -0.2500000   0.5000000  -0.2500000), wk =   0.0937500
        k(    9) = (   0.6250000  -0.3750000   0.6250000), wk =   0.0937500
        k(   10) = (   0.5000000  -0.2500000   0.5000000), wk =   0.0937500
        k(   11) = (   0.3750000  -0.1250000   0.3750000), wk =   0.0937500
        k(   12) = (   0.2500000   0.0000000   0.2500000), wk =   0.0468750
        k(   13) = (   0.0000000   0.5000000   0.0000000), wk =   0.0234375
        k(   14) = (  -0.1250000   0.6250000  -0.1250000), wk =   0.0937500
        k(   15) = (   0.7500000  -0.2500000   0.7500000), wk =   0.0937500
        k(   16) = (   0.6250000  -0.1250000   0.6250000), wk =   0.0937500
        k(   17) = (   0.5000000   0.0000000   0.5000000), wk =   0.0468750
        k(   18) = (   0.0000000   0.7500000   0.0000000), wk =   0.0234375
        k(   19) = (   0.8750000  -0.1250000   0.8750000), wk =   0.0937500
        k(   20) = (   0.7500000   0.0000000   0.7500000), wk =   0.0468750
        k(   21) = (   0.0000000  -1.0000000   0.0000000), wk =   0.0117188
        k(   22) = (  -0.2500000   0.5000000   0.0000000), wk =   0.0937500
        k(   23) = (   0.6250000  -0.3750000   0.8750000), wk =   0.1875000
        k(   24) = (   0.5000000  -0.2500000   0.7500000), wk =   0.0937500
        k(   25) = (   0.7500000  -0.2500000   1.0000000), wk =   0.0937500
        k(   26) = (   0.6250000  -0.1250000   0.8750000), wk =   0.1875000
        k(   27) = (   0.5000000   0.0000000   0.7500000), wk =   0.0937500
        k(   28) = (  -0.2500000  -1.0000000   0.0000000), wk =   0.0468750
        k(   29) = (  -0.5000000  -1.0000000   0.0000000), wk =   0.0234375

     Dense  grid:     4015 G-vectors     FFT dimensions: (  24,  24,  24)

     Smooth grid:     2837 G-vectors     FFT dimensions: (  20,  20,  20)

     Estimated max dynamical RAM per process >       3.27 MB

     Estimated total dynamical RAM >      13.09 MB

     Initial potential from superposition of free atoms

     starting charge    9.99981, renormalised to   10.00000
     Starting wfcs are   16 randomized atomic wfcs
     Checking if some PAW data can be deallocated... 

     total cpu time spent up to now is        1.3 secs

     Self-consistent Calculation

     iteration #  1     ecut=    40.00 Ry     beta= 0.70
     Davidson diagonalization with overlap
     ethr =  1.00E-02,  avg # of iterations =  2.9

     total cpu time spent up to now is        1.4 secs

     total energy              =     -71.28831116 Ry
     Harris-Foulkes estimate   =     -71.44214659 Ry
     estimated scf accuracy    <       0.20215376 Ry

     iteration #  2     ecut=    40.00 Ry     beta= 0.70
     Davidson diagonalization with overlap
     ethr =  2.02E-03,  avg # of iterations =  2.0

     total cpu time spent up to now is        1.5 secs

     total energy              =     -71.34883248 Ry
     Harris-Foulkes estimate   =     -71.42478558 Ry
     estimated scf accuracy    <       0.14148406 Ry

     iteration #  3     ecut=    40.00 Ry     beta= 0.70
     Davidson diagonalization with overlap
     ethr =  1.41E-03,  avg # of iterations =  1.8

     total cpu time spent up to now is        1.7 secs

     total energy              =     -71.37862857 Ry
     Harris-Foulkes estimate   =     -71.37845076 Ry
     estimated scf accuracy    <       0.00061343 Ry

     iteration #  4     ecut=    40.00 Ry     beta= 0.70
     Davidson diagonalization with overlap
     ethr =  6.13E-06,  avg # of iterations =  2.8

     total cpu time spent up to now is        1.8 secs

     total energy              =     -71.37893767 Ry
     Harris-Foulkes estimate   =     -71.37894781 Ry
     estimated scf accuracy    <       0.00002800 Ry

     iteration #  5     ecut=    40.00 Ry     beta= 0.70
     Davidson diagonalization with overlap
     ethr =  2.80E-07,  avg # of iterations =  1.8

     total cpu time spent up to now is        1.8 secs

     total energy              =     -71.37894219 Ry
     Harris-Foulkes estimate   =     -71.37894204 Ry
     estimated scf accuracy    <       0.00000081 Ry

     iteration #  6     ecut=    40.00 Ry     beta= 0.70
     Davidson diagonalization with overlap
     ethr =  8.11E-09,  avg # of iterations =  1.8

     total cpu time spent up to now is        1.9 secs

     total energy              =     -71.37894223 Ry
     Harris-Foulkes estimate   =     -71.37894227 Ry
     estimated scf accuracy    <       0.00000010 Ry

     iteration #  7     ecut=    40.00 Ry     beta= 0.70
     Davidson diagonalization with overlap
     ethr =  9.78E-10,  avg # of iterations =  2.0

     total cpu time spent up to now is        2.0 secs

     End of self-consistent calculation

          k = 0.0000 0.0000 0.0000 (   339 PWs)   bands (ev):

   -89.8812 -10.8913   8.8716   8.8716   8.8716  16.8117  27.2382  27.2382
    27.2382

          k =-0.1250 0.1250-0.1250 (   344 PWs)   bands (ev):

   -89.8816 -10.6226   7.6726   8.8100   8.8100  17.4903  25.5657  25.8183
    25.8183

          k =-0.2500 0.2500-0.2500 (   356 PWs)   bands (ev):

   -89.8866  -9.8916   5.2284   8.6748   8.6748  17.9550  23.5930  23.5930
    24.3487

          k =-0.3750 0.3750-0.3750 (   359 PWs)   bands (ev):

   -89.8860  -8.9859   2.9724   8.5630   8.5630  17.3614  21.9765  21.9765
    25.0164

          k = 0.5000-0.5000 0.5000 (   368 PWs)   bands (ev):

   -89.8898  -8.5286   2.0168   8.5226   8.5226  17.0055  21.3993  21.3993
    25.5256

          k = 0.0000 0.2500 0.0000 (   347 PWs)   bands (ev):

   -89.8836 -10.5299   7.9151   8.4207   8.4207  17.9023  24.5859  26.2467
    26.2468

          k =-0.1250 0.3750-0.1250 (   357 PWs)   bands (ev):

   -89.8872  -9.9414   5.9918   8.0592   8.2826  18.8596  22.7234  24.2903
    25.1217

          k =-0.2500 0.5000-0.2500 (   358 PWs)   bands (ev):

   -89.8848  -9.0593   3.7188   7.8872   7.9285  18.7116  21.4700  23.4734
    24.3549

          k = 0.6250-0.3750 0.6250 (   363 PWs)   bands (ev):

   -89.8865  -8.3915   2.3212   7.4022   8.0934  18.1713  21.2077  22.2291
    25.1684

          k = 0.5000-0.2500 0.5000 (   359 PWs)   bands (ev):

   -89.8844  -8.5547   2.6636   7.1229   8.4682  18.1717  21.8389  21.8845
    24.9452

          k = 0.3750-0.1250 0.3750 (   355 PWs)   bands (ev):

   -89.8837  -9.3762   4.4914   7.2275   8.8414  18.5991  22.4901  23.1436
    24.0813

          k = 0.2500 0.0000 0.2500 (   353 PWs)   bands (ev):

   -89.8855 -10.1946   6.5723   7.8715   8.9871  18.2843  24.0767  24.3823
    24.6976

          k = 0.0000 0.5000 0.0000 (   351 PWs)   bands (ev):

   -89.8828  -9.5077   5.6163   7.4223   7.4223  20.1972  21.4428  24.0391
    25.9197

          k =-0.1250 0.6250-0.1250 (   355 PWs)   bands (ev):

   -89.8819  -8.7344   4.0196   6.7446   7.0918  20.0199  21.5519  23.1579
    25.3605

          k = 0.7500-0.2500 0.7500 (   362 PWs)   bands (ev):

   -89.8851  -8.0182   2.8404   5.6937   7.2074  19.4299  21.7048  24.1187
    24.1638

          k = 0.6250-0.1250 0.6250 (   363 PWs)   bands (ev):

   -89.8856  -7.9443   2.9623   4.8954   7.7274  19.1569  22.4092  22.9697
    24.3010

          k = 0.5000 0.0000 0.5000 (   363 PWs)   bands (ev):

   -89.8865  -8.5805   3.9796   5.2117   8.4131  19.2106  22.3262  23.1151
    23.5095

          k = 0.0000 0.7500 0.0000 (   351 PWs)   bands (ev):

   -89.8783  -8.1254   3.0066   6.5311   6.5311  19.2094  22.0101  23.3180
    26.3514

          k = 0.8750-0.1250 0.8750 (   360 PWs)   bands (ev):

   -89.8835  -7.5640   2.2588   5.7158   6.4648  19.0918  21.9698  24.0361
    25.9197

          k = 0.7500 0.0000 0.7500 (   363 PWs)   bands (ev):

   -89.8851  -7.4901   2.6836   4.4530   6.9186  19.1937  22.9441  23.9822
    24.5693

          k = 0.0000-1.0000 0.0000 (   342 PWs)   bands (ev):

   -89.8708  -7.3416   1.7170   6.1901   6.1901  18.7037  21.3296  24.5791
    26.6553

          k =-0.2500 0.5000 0.0000 (   354 PWs)   bands (ev):

   -89.8825  -9.2562   4.8552   6.6906   8.1859  19.8318  21.5690  23.2616
    24.7627

          k = 0.6250-0.3750 0.8750 (   360 PWs)   bands (ev):

   -89.8843  -8.4221   3.3602   5.8857   7.8088  19.7735  21.2188  23.2232
    24.3312

          k = 0.5000-0.2500 0.7500 (   370 PWs)   bands (ev):

   -89.8900  -8.0094   2.6132   5.7007   7.5816  19.4972  21.2697  22.9815
    24.6800

          k = 0.7500-0.2500 1.0000 (   353 PWs)   bands (ev):

   -89.8792  -8.0270   3.1169   5.6688   6.7980  19.9311  22.4463  22.5026
    25.2840

          k = 0.6250-0.1250 0.8750 (   365 PWs)   bands (ev):

   -89.8861  -7.5784   2.9197   4.5279   6.7083  20.1637  22.3560  23.4461
    24.2642

          k = 0.5000 0.0000 0.7500 (   364 PWs)   bands (ev):

   -89.8856  -7.7729   3.5757   4.0017   7.1727  20.2704  21.9940  23.3071
    24.0440

          k =-0.2500-1.0000 0.0000 (   362 PWs)   bands (ev):

   -89.8848  -7.3630   2.2044   5.2810   6.2380  19.5192  22.1747  24.2550
    24.9546

          k =-0.5000-1.0000 0.0000 (   360 PWs)   bands (ev):

   -89.8824  -7.3840   3.5555   3.5555   6.2879  21.7408  21.9791  23.4028
    23.4028

     the Fermi energy is    12.6380 ev

!    total energy              =     -71.37894225 Ry
     Harris-Foulkes estimate   =     -71.37894225 Ry
     estimated scf accuracy    <          1.0E-10 Ry

     total all-electron energy =       -71.378942 Ry

     The total energy is the sum of the following terms:

     one-electron contribution =     -18.43021012 Ry
     hartree contribution      =       8.23793100 Ry
     xc contribution           =     -11.31202315 Ry
     ewald contribution        =     -41.83021676 Ry
     one-center paw contrib.   =      -8.04442322 Ry
     smearing contrib. (-TS)   =       0.00000000 Ry

     convergence has been achieved in   7 iterations

     Forces acting on atoms (cartesian axes, Ry/au):

     atom    1 type  1   force =     0.00000000    0.00000000    0.00000000
     atom    2 type  2   force =     0.00000000    0.00000000    0.00000000

     Total force =     0.000000     Total SCF correction =     0.000000


     Computing stress (Cartesian axis) and pressure

          total   stress  (Ry/bohr**3)                   (kbar)     P= -131.86
  -0.00089636  -0.00000000   0.00000000       -131.86     -0.00      0.00
  -0.00000000  -0.00089636  -0.00000000         -0.00   -131.86     -0.00
   0.00000000  -0.00000000  -0.00089636          0.00     -0.00   -131.86


     BFGS Geometry Optimization

     number of scf cycles    =   1
     number of bfgs steps    =   0

     enthalpy new            =     -71.3789422487 Ry

     new trust radius        =       0.0410580653 bohr
     new conv_thr            =       0.0000000100 Ry

     new unit-cell volume =     78.40903 a.u.^3 (    11.61902 Ang^3 )
     density =      3.57454 g/cm^3

CELL_PARAMETERS (alat=  6.95000000)
  -0.488795531  -0.000000000   0.488795531
   0.000000000   0.488795531   0.488795531
  -0.488795531   0.488795531  -0.000000000

ATOMIC_POSITIONS (crystal)
O        0.000000000   0.000000000   0.000000000
Be       0.500000000   0.500000000   0.500000000



     Writing output data file relax.save/
     NEW-OLD atomic charge density approx. for the potential
     extrapolated charge    9.29645, renormalised to   10.00000

     total cpu time spent up to now is        2.4 secs

     Self-consistent Calculation

     iteration #  1     ecut=    40.00 Ry     beta= 0.70
     Davidson diagonalization with overlap
     ethr =  1.00E-06,  avg # of iterations =  3.9

     total cpu time spent up to now is        2.5 secs

     total energy              =     -71.31049528 Ry
     Harris-Foulkes estimate   =     -71.76007759 Ry
     estimated scf accuracy    <       0.04823129 Ry

     iteration #  2     ecut=    40.00 Ry     beta= 0.70
     Davidson diagonalization with overlap
     ethr =  4.82E-04,  avg # of iterations =  2.9

     total cpu time spent up to now is        2.6 secs

     total energy              =     -71.37517781 Ry
     Harris-Foulkes estimate   =     -71.44099516 Ry
     estimated scf accuracy    <       0.17371610 Ry

     iteration #  3     ecut=    40.00 Ry     beta= 0.70
     Davidson diagonalization with overlap
     ethr =  4.82E-04,  avg # of iterations =  2.1

     total cpu time spent up to now is        2.7 secs

     total energy              =     -71.37690803 Ry
     Harris-Foulkes estimate   =     -71.38917891 Ry
     estimated scf accuracy    <       0.02496370 Ry

     iteration #  4     ecut=    40.00 Ry     beta= 0.70
     Davidson diagonalization with overlap
     ethr =  2.50E-04,  avg # of iterations =  1.4

     total cpu time spent up to now is        2.7 secs

     total energy              =     -71.37994885 Ry
     Harris-Foulkes estimate   =     -71.38035246 Ry
     estimated scf accuracy    <       0.00110017 Ry

     iteration #  5     ecut=    40.00 Ry     beta= 0.70
     Davidson diagonalization with overlap
     ethr =  1.10E-05,  avg # of iterations =  2.1

     total cpu time spent up to now is        2.8 secs

     total energy              =     -71.37994335 Ry
     Harris-Foulkes estimate   =     -71.38013258 Ry
     estimated scf accuracy    <       0.00019669 Ry

     iteration #  6     ecut=    40.00 Ry     beta= 0.70
     Davidson diagonalization with overlap
     ethr =  1.97E-06,  avg # of iterations =  2.1

     total cpu time spent up to now is        2.9 secs

     total energy              =     -71.38003931 Ry
     Harris-Foulkes estimate   =     -71.38007128 Ry
     estimated scf accuracy    <       0.00008699 Ry

     iteration #  7     ecut=    40.00 Ry     beta= 0.70
     Davidson diagonalization with overlap
     ethr =  8.70E-07,  avg # of iterations =  1.0

     total cpu time spent up to now is        3.0 secs

     total energy              =     -71.38003421 Ry
     Harris-Foulkes estimate   =     -71.38004518 Ry
     estimated scf accuracy    <       0.00001725 Ry

     iteration #  8     ecut=    40.00 Ry     beta= 0.70
     Davidson diagonalization with overlap
     ethr =  1.73E-07,  avg # of iterations =  2.1

     total cpu time spent up to now is        3.1 secs

     total energy              =     -71.38003896 Ry
     Harris-Foulkes estimate   =     -71.38003902 Ry
     estimated scf accuracy    <       0.00000015 Ry

     iteration #  9     ecut=    40.00 Ry     beta= 0.70
     Davidson diagonalization with overlap
     ethr =  1.54E-09,  avg # of iterations =  1.7

     total cpu time spent up to now is        3.1 secs

     total energy              =     -71.38003897 Ry
     Harris-Foulkes estimate   =     -71.38003899 Ry
     estimated scf accuracy    <       0.00000003 Ry

     iteration # 10     ecut=    40.00 Ry     beta= 0.70
     Davidson diagonalization with overlap
     ethr =  2.95E-10,  avg # of iterations =  2.1

     total cpu time spent up to now is        3.2 secs

     End of self-consistent calculation

          k = 0.0000 0.0000 0.0000 (   339 PWs)   bands (ev):

   -88.6585 -10.5075   9.8373   9.8373   9.8373  18.8180  29.0758  29.0758
    29.0758

          k =-0.1279 0.1279-0.1279 (   344 PWs)   bands (ev):

   -88.6580 -10.2174   8.5984   9.7685   9.7685  19.4420  27.2304  27.5101
    27.5101

          k =-0.2557 0.2557-0.2557 (   356 PWs)   bands (ev):

   -88.6598  -9.4222   6.0126   9.6194   9.6194  19.6801  25.1180  25.1180
    26.1495

          k =-0.3836 0.3836-0.3836 (   359 PWs)   bands (ev):

   -88.6583  -8.4218   3.5806   9.4957   9.4957  18.8790  23.3936  23.3936
    27.0566

          k = 0.5115-0.5115 0.5115 (   368 PWs)   bands (ev):

   -88.6599  -7.9069   2.5359   9.4513   9.4513  18.4690  22.7793  22.7793
    27.6502

          k = 0.0000 0.2557 0.0000 (   347 PWs)   bands (ev):

   -88.6591 -10.1171   8.8884   9.3438   9.3438  19.8633  26.2252  27.9866
    27.9866

          k =-0.1279 0.3836-0.1279 (   357 PWs)   bands (ev):

   -88.6602  -9.4767   6.8409   8.9494   9.2066  20.7184  24.2581  25.8637
    26.7934

          k =-0.2557 0.5115-0.2557 (   358 PWs)   bands (ev):

   -88.6575  -8.5044   4.3874   8.7766   8.8051  20.3318  22.9100  25.0265
    26.2302

          k = 0.6393-0.3836 0.6393 (   363 PWs)   bands (ev):

   -88.6578  -7.7530   2.8547   8.2521   8.9829  19.6847  22.6470  23.6910
    27.2203

          k = 0.5115-0.2557 0.5115 (   359 PWs)   bands (ev):

   -88.6567  -7.9383   3.2316   7.9494   9.3903  19.6864  23.2640  23.3780
    26.9807

          k = 0.3836-0.1279 0.3836 (   355 PWs)   bands (ev):

   -88.6573  -8.8559   5.2283   8.0542   9.7995  20.2510  23.9461  24.6895
    25.9542

          k = 0.2557 0.0000 0.2557 (   353 PWs)   bands (ev):

   -88.6596  -9.7530   7.4634   8.7417   9.9613  20.1588  25.6360  25.9221
    26.4421

          k = 0.0000 0.5115 0.0000 (   351 PWs)   bands (ev):

   -88.6571  -9.0012   6.4683   8.2584   8.2584  22.1664  22.9351  25.2830
    27.7018

          k =-0.1279 0.6393-0.1279 (   355 PWs)   bands (ev):

   -88.6555  -8.1425   4.7199   7.5298   7.9004  21.6662  23.1869  24.6439
    27.1120

          k = 0.7672-0.2557 0.7672 (   362 PWs)   bands (ev):

   -88.6566  -7.3298   3.3939   6.4124   8.0230  20.9447  23.3431  25.7690
    25.9784

          k = 0.6393-0.1279 0.6393 (   363 PWs)   bands (ev):

   -88.6568  -7.2447   3.5092   5.5655   8.5839  20.6268  24.1197  24.5218
    26.2332

          k = 0.5115 0.0000 0.5115 (   363 PWs)   bands (ev):

   -88.6579  -7.9692   4.6858   5.8603   9.3300  20.7365  23.8050  24.7283
    25.4801

          k = 0.0000 0.7672 0.0000 (   351 PWs)   bands (ev):

   -88.6528  -7.4533   3.5960   7.2961   7.2961  20.8515  23.1593  25.1932
    28.2256

          k = 0.8951-0.1279 0.8951 (   360 PWs)   bands (ev):

   -88.6554  -6.8032   2.7342   6.4256   7.2242  20.7113  23.2686  25.8950
    27.7599

          k = 0.7672 0.0000 0.7672 (   363 PWs)   bands (ev):

   -88.6562  -6.7173   3.1568   5.0999   7.7109  20.7002  24.6602  25.7932
    26.2802

          k = 0.0000-1.0229 0.0000 (   342 PWs)   bands (ev):

   -88.6477  -6.5391   2.1286   6.9279   6.9279  20.3637  22.4471  26.4862
    28.5775

          k =-0.2557 0.5115 0.0000 (   354 PWs)   bands (ev):

   -88.6564  -8.7234   5.6393   7.4587   9.0914  21.6195  23.0848  24.7410
    26.5596

          k = 0.6393-0.3836 0.8951 (   360 PWs)   bands (ev):

   -88.6565  -7.7902   3.9842   6.6081   8.6799  21.3748  22.7321  24.8028
    26.2280

          k = 0.5115-0.2557 0.7672 (   370 PWs)   bands (ev):

   -88.6595  -7.3187   3.1426   6.4210   8.4347  21.0338  22.8098  24.5596
    26.6492

          k = 0.7672-0.2557 1.0229 (   353 PWs)   bands (ev):

   -88.6532  -7.3409   3.7053   6.3573   7.5957  21.5751  23.8895  24.1861
    27.1494

          k = 0.6393-0.1279 0.8951 (   365 PWs)   bands (ev):

   -88.6568  -6.8214   3.4336   5.1479   7.5072  21.7409  24.0617  25.0821
    26.0810

          k = 0.5115 0.0000 0.7672 (   364 PWs)   bands (ev):

   -88.6567  -7.0479   4.1837   4.5634   8.0007  21.8034  23.6796  24.9782
    25.8799

          k =-0.2557-1.0229 0.0000 (   362 PWs)   bands (ev):

   -88.6560  -6.5668   2.6473   5.9416   7.0056  21.1841  23.5209  26.1098
    26.7818

          k =-0.5115-1.0229 0.0000 (   360 PWs)   bands (ev):

   -88.6544  -6.5940   4.0868   4.0868   7.0838  23.5501  23.5832  25.0860
    25.0860

     the Fermi energy is    14.3996 ev

!    total energy              =     -71.38003898 Ry
     Harris-Foulkes estimate   =     -71.38003898 Ry
     estimated scf accuracy    <          3.3E-09 Ry

     total all-electron energy =       -71.380039 Ry

     The total energy is the sum of the following terms:

     one-electron contribution =     -17.06543594 Ry
     hartree contribution      =       7.89109819 Ry
     xc contribution           =     -11.38680303 Ry
     ewald contribution        =     -42.78907447 Ry
     one-center paw contrib.   =      -8.02982374 Ry
     smearing contrib. (-TS)   =       0.00000000 Ry

     convergence has been achieved in  10 iterations

     Forces acting on atoms (cartesian axes, Ry/au):

     atom    1 type  1   force =    -0.00000000   -0.00000000   -0.00000000
     atom    2 type  2   force =     0.00000000    0.00000000    0.00000000

     Total force =     0.000000     Total SCF correction =     0.000000


     Computing stress (Cartesian axis) and pressure

          total   stress  (Ry/bohr**3)                   (kbar)     P=   81.54
   0.00055429   0.00000000   0.00000000         81.54      0.00      0.00
   0.00000000   0.00055429  -0.00000000          0.00     81.54     -0.00
   0.00000000  -0.00000000   0.00055429          0.00     -0.00     81.54


     number of scf cycles    =   2
     number of bfgs steps    =   1

     enthalpy old            =     -71.3789422487 Ry
     enthalpy new            =     -71.3800389820 Ry

     CASE: enthalpy_new < enthalpy_old

     new trust radius        =       0.0150793362 bohr
     new conv_thr            =            1.0E-10 Ry

     new unit-cell volume =     80.42902 a.u.^3 (    11.91835 Ang^3 )
     density =      3.48477 g/cm^3

CELL_PARAMETERS (alat=  6.95000000)
  -0.492957477  -0.000000000   0.492957477
   0.000000000   0.492957477   0.492957477
  -0.492957477   0.492957477  -0.000000000

ATOMIC_POSITIONS (crystal)
O        0.000000000  -0.000000000   0.000000000
Be       0.500000000   0.500000000   0.500000000



     Writing output data file relax.save/
     NEW-OLD atomic charge density approx. for the potential
     extrapolated charge   10.25115, renormalised to   10.00000

     total cpu time spent up to now is        3.6 secs

     Self-consistent Calculation

     iteration #  1     ecut=    40.00 Ry     beta= 0.70
     Davidson diagonalization with overlap
     ethr =  1.00E-06,  avg # of iterations =  3.3

     total cpu time spent up to now is        3.7 secs

     total energy              =     -71.37179890 Ry
     Harris-Foulkes estimate   =     -71.25077220 Ry
     estimated scf accuracy    <       0.00572931 Ry

     iteration #  2     ecut=    40.00 Ry     beta= 0.70
     Davidson diagonalization with overlap
     ethr =  5.73E-05,  avg # of iterations =  3.0

     total cpu time spent up to now is        3.8 secs

     total energy              =     -71.38009134 Ry
     Harris-Foulkes estimate   =     -71.38859950 Ry
     estimated scf accuracy    <       0.02302447 Ry

     iteration #  3     ecut=    40.00 Ry     beta= 0.70
     Davidson diagonalization with overlap
     ethr =  5.73E-05,  avg # of iterations =  2.1

     total cpu time spent up to now is        3.9 secs

     total energy              =     -71.38008097 Ry
     Harris-Foulkes estimate   =     -71.38186209 Ry
     estimated scf accuracy    <       0.00360665 Ry

     iteration #  4     ecut=    40.00 Ry     beta= 0.70
     Davidson diagonalization with overlap
     ethr =  3.61E-05,  avg # of iterations =  1.4

     total cpu time spent up to now is        4.0 secs

     total energy              =     -71.38051983 Ry
     Harris-Foulkes estimate   =     -71.38060222 Ry
     estimated scf accuracy    <       0.00012258 Ry

     iteration #  5     ecut=    40.00 Ry     beta= 0.70
     Davidson diagonalization with overlap
     ethr =  1.23E-06,  avg # of iterations =  2.2

     total cpu time spent up to now is        4.1 secs

     total energy              =     -71.38056961 Ry
     Harris-Foulkes estimate   =     -71.38057333 Ry
     estimated scf accuracy    <       0.00000507 Ry

     iteration #  6     ecut=    40.00 Ry     beta= 0.70
     Davidson diagonalization with overlap
     ethr =  5.07E-08,  avg # of iterations =  2.2

     total cpu time spent up to now is        4.1 secs

     total energy              =     -71.38057258 Ry
     Harris-Foulkes estimate   =     -71.38057408 Ry
     estimated scf accuracy    <       0.00000587 Ry

     iteration #  7     ecut=    40.00 Ry     beta= 0.70
     Davidson diagonalization with overlap
     ethr =  5.07E-08,  avg # of iterations =  1.0

     total cpu time spent up to now is        4.2 secs

     total energy              =     -71.38057097 Ry
     Harris-Foulkes estimate   =     -71.38057273 Ry
     estimated scf accuracy    <       0.00000282 Ry

     iteration #  8     ecut=    40.00 Ry     beta= 0.70
     Davidson diagonalization with overlap
     ethr =  2.82E-08,  avg # of iterations =  2.1

     total cpu time spent up to now is        4.3 secs

     total energy              =     -71.38057172 Ry
     Harris-Foulkes estimate   =     -71.38057177 Ry
     estimated scf accuracy    <       0.00000006 Ry

     iteration #  9     ecut=    40.00 Ry     beta= 0.70
     Davidson diagonalization with overlap
     ethr =  5.85E-10,  avg # of iterations =  2.1

     total cpu time spent up to now is        4.4 secs

     total energy              =     -71.38057175 Ry
     Harris-Foulkes estimate   =     -71.38057176 Ry
     estimated scf accuracy    <       0.00000001 Ry

     iteration # 10     ecut=    40.00 Ry     beta= 0.70
     Davidson diagonalization with overlap
     ethr =  1.38E-10,  avg # of iterations =  2.1

     total cpu time spent up to now is        4.5 secs

     total energy              =     -71.38057175 Ry
     Harris-Foulkes estimate   =     -71.38057175 Ry
     estimated scf accuracy    <          1.4E-10 Ry

     iteration # 11     ecut=    40.00 Ry     beta= 0.70
     Davidson diagonalization with overlap
     ethr =  1.39E-12,  avg # of iterations =  2.0

     total cpu time spent up to now is        4.6 secs

     End of self-consistent calculation

          k = 0.0000 0.0000 0.0000 (   339 PWs)   bands (ev):

   -89.1206 -10.6534   9.4687   9.4687   9.4687  18.0504  28.3784  28.3784
    28.3784

          k =-0.1268 0.1268-0.1268 (   344 PWs)   bands (ev):

   -89.1204 -10.3714   8.2452   9.4026   9.4026  18.6958  26.5996  26.8686
    26.8686

          k =-0.2536 0.2536-0.2536 (   356 PWs)   bands (ev):

   -89.1232  -9.6002   5.7133   9.2589   9.2589  19.0236  24.5399  24.5399
    25.4630

          k =-0.3804 0.3804-0.3804 (   359 PWs)   bands (ev):

   -89.1221  -8.6357   3.3482   9.1397   9.1397  18.3009  22.8564  22.8564
    26.2794

          k = 0.5071-0.5071 0.5071 (   368 PWs)   bands (ev):

   -89.1244  -8.1429   2.3376   9.0969   9.0969  17.9110  22.2562  22.2562
    26.8414

          k = 0.0000 0.2536 0.0000 (   347 PWs)   bands (ev):

   -89.1218 -10.2739   8.5169   8.9916   8.9916  19.1135  25.6031  27.3266
    27.3266

          k =-0.1268 0.3804-0.1268 (   357 PWs)   bands (ev):

   -89.1237  -9.6530   6.5169   8.6099   8.8538  20.0103  23.6759  25.2663
    26.1591

          k =-0.2536 0.5071-0.2536 (   358 PWs)   bands (ev):

   -89.1211  -8.7148   4.1319   8.4371   8.4707  19.7156  22.3644  24.4373
    25.5154

          k = 0.6339-0.3804 0.6339 (   363 PWs)   bands (ev):

   -89.1219  -7.9954   2.6509   7.9277   8.6435  19.1083  22.1011  23.1365
    26.4389

          k = 0.5071-0.2536 0.5071 (   359 PWs)   bands (ev):

   -89.1205  -8.1722   3.0146   7.6339   9.0384  19.1097  22.7236  22.8115
    26.2050

          k = 0.3804-0.1268 0.3804 (   355 PWs)   bands (ev):

   -89.1206  -9.0532   4.9468   7.7387   9.4338  19.6231  23.3941  24.1035
    25.2388

          k = 0.2536 0.0000 0.2536 (   353 PWs)   bands (ev):

   -89.1227  -9.9206   7.1232   8.4098   9.5894  19.4436  25.0448  25.3385
    25.7782

          k = 0.0000 0.5071 0.0000 (   351 PWs)   bands (ev):

   -89.1202  -9.1932   6.1423   7.9395   7.9395  21.4153  22.3675  24.8110
    27.0249

          k =-0.1268 0.6339-0.1268 (   355 PWs)   bands (ev):

   -89.1188  -8.3670   4.4518   7.2302   7.5921  21.0454  22.5664  24.0739
    26.4467

          k = 0.7607-0.2536 0.7607 (   362 PWs)   bands (ev):

   -89.1207  -7.5914   3.1824   6.1381   7.7120  20.3703  22.7201  25.1424
    25.2878

          k = 0.6339-0.1268 0.6339 (   363 PWs)   bands (ev):

   -89.1210  -7.5106   3.3006   5.3094   8.2572  20.0680  23.4703  23.9327
    25.4964

          k = 0.5071 0.0000 0.5071 (   363 PWs)   bands (ev):

   -89.1220  -8.2011   4.4154   5.6132   8.9802  20.1567  23.2440  24.1151
    24.7286

          k = 0.0000 0.7607 0.0000 (   351 PWs)   bands (ev):

   -89.1158  -7.7085   3.3701   7.0044   7.0044  20.2277  22.7232  24.4771
    27.5131

          k = 0.8875-0.1268 0.8875 (   360 PWs)   bands (ev):

   -89.1194  -7.0929   2.5526   6.1550   6.9346  20.0966  22.7758  25.1864
    27.0604

          k = 0.7607 0.0000 0.7607 (   363 PWs)   bands (ev):

   -89.1204  -7.0117   2.9766   4.8530   7.4088  20.1286  24.0081  25.1037
    25.6302

          k = 0.0000-1.0143 0.0000 (   342 PWs)   bands (ev):

   -89.1100  -6.8453   1.9717   6.6465   6.6465  19.7316  22.0230  25.7596
    27.8464

          k =-0.2536 0.5071 0.0000 (   354 PWs)   bands (ev):

   -89.1197  -8.9254   5.3394   7.1660   8.7459  20.9405  22.5085  24.1803
    25.8743

          k = 0.6339-0.3804 0.8875 (   360 PWs)   bands (ev):

   -89.1203  -8.0300   3.7457   6.3324   8.3475  20.7662  22.1585  24.2031
    25.5042

          k = 0.5071-0.2536 0.7607 (   370 PWs)   bands (ev):

   -89.1242  -7.5812   2.9406   6.1460   8.1093  20.4493  22.2258  23.9600
    25.8990

          k = 0.7607-0.2536 1.0143 (   353 PWs)   bands (ev):

   -89.1164  -7.6015   3.4800   6.0950   7.2914  20.9511  23.3643  23.5233
    26.4387

          k = 0.6339-0.1268 0.8875 (   365 PWs)   bands (ev):

   -89.1212  -7.1096   3.2376   4.9115   7.2024  21.1425  23.4129  24.4612
    25.3887

          k = 0.5071 0.0000 0.7607 (   364 PWs)   bands (ev):

   -89.1209  -7.3236   3.9513   4.3494   7.6848  21.2206  23.0416  24.3429
    25.1787

          k =-0.2536-1.0143 0.0000 (   362 PWs)   bands (ev):

   -89.1202  -6.8704   2.4786   5.6899   6.7128  20.5507  23.0112  25.4034
    26.0868

          k =-0.5071-1.0143 0.0000 (   360 PWs)   bands (ev):

   -89.1183  -6.8951   3.8844   3.8844   6.7799  22.8617  22.9735  24.4463
    24.4463

     the Fermi energy is    13.7313 ev

!    total energy              =     -71.38057175 Ry
     Harris-Foulkes estimate   =     -71.38057175 Ry
     estimated scf accuracy    <          2.2E-12 Ry

     total all-electron energy =       -71.380572 Ry

     The total energy is the sum of the following terms:

     one-electron contribution =     -17.57937224 Ry
     hartree contribution      =       8.02024429 Ry
     xc contribution           =     -11.35838734 Ry
     ewald contribution        =     -42.42781450 Ry
     one-center paw contrib.   =      -8.03524197 Ry
     smearing contrib. (-TS)   =       0.00000000 Ry

     convergence has been achieved in  11 iterations

     Forces acting on atoms (cartesian axes, Ry/au):

     atom    1 type  1   force =    -0.00000000   -0.00000000    0.00000000
     atom    2 type  2   force =     0.00000000    0.00000000    0.00000000

     Total force =     0.000000     Total SCF correction =     0.000000


     Computing stress (Cartesian axis) and pressure

          total   stress  (Ry/bohr**3)                   (kbar)     P=   -2.38
  -0.00001616   0.00000000  -0.00000000         -2.38      0.00     -0.00
   0.00000000  -0.00001616  -0.00000000          0.00     -2.38     -0.00
   0.00000000  -0.00000000  -0.00001616          0.00     -0.00     -2.38


     number of scf cycles    =   3
     number of bfgs steps    =   2

     enthalpy old            =     -71.3800389820 Ry
     enthalpy new            =     -71.3805717529 Ry

     CASE: enthalpy_new < enthalpy_old

     new trust radius        =       0.0004361983 bohr
     new conv_thr            =            1.0E-10 Ry

     new unit-cell volume =     80.37036 a.u.^3 (    11.90966 Ang^3 )
     density =      3.48731 g/cm^3

CELL_PARAMETERS (alat=  6.95000000)
  -0.492837594  -0.000000000   0.492837594
   0.000000000   0.492837594   0.492837594
  -0.492837594   0.492837594  -0.000000000

ATOMIC_POSITIONS (crystal)
O        0.000000000  -0.000000000  -0.000000000
Be       0.500000000   0.500000000   0.500000000



     Writing output data file relax.save/
     NEW-OLD atomic charge density approx. for the potential
     extrapolated charge    9.99270, renormalised to   10.00000

     total cpu time spent up to now is        5.1 secs

     Self-consistent Calculation

     iteration #  1     ecut=    40.00 Ry     beta= 0.70
     Davidson diagonalization with overlap
     ethr =  1.00E-06,  avg # of iterations =  2.0

     Threshold (ethr) on eigenvalues was too large:
     Diagonalizing with lowered threshold

     Davidson diagonalization with overlap
     ethr =  4.99E-08,  avg # of iterations =  1.0

     total cpu time spent up to now is        5.3 secs

     total energy              =     -71.38056471 Ry
     Harris-Foulkes estimate   =     -71.38444487 Ry
     estimated scf accuracy    <       0.00000500 Ry

     iteration #  2     ecut=    40.00 Ry     beta= 0.70
     Davidson diagonalization with overlap
     ethr =  5.00E-08,  avg # of iterations =  3.0

     total cpu time spent up to now is        5.4 secs

     total energy              =     -71.38057178 Ry
     Harris-Foulkes estimate   =     -71.38057907 Ry
     estimated scf accuracy    <       0.00001965 Ry

     iteration #  3     ecut=    40.00 Ry     beta= 0.70
     Davidson diagonalization with overlap
     ethr =  5.00E-08,  avg # of iterations =  2.1

     total cpu time spent up to now is        5.5 secs

     total energy              =     -71.38057175 Ry
     Harris-Foulkes estimate   =     -71.38057331 Ry
     estimated scf accuracy    <       0.00000300 Ry

     iteration #  4     ecut=    40.00 Ry     beta= 0.70
     Davidson diagonalization with overlap
     ethr =  3.00E-08,  avg # of iterations =  1.8

     total cpu time spent up to now is        5.6 secs

     total energy              =     -71.38057220 Ry
     Harris-Foulkes estimate   =     -71.38057224 Ry
     estimated scf accuracy    <       0.00000005 Ry

     iteration #  5     ecut=    40.00 Ry     beta= 0.70
     Davidson diagonalization with overlap
     ethr =  4.62E-10,  avg # of iterations =  2.2

     total cpu time spent up to now is        5.7 secs

     total energy              =     -71.38057223 Ry
     Harris-Foulkes estimate   =     -71.38057225 Ry
     estimated scf accuracy    <       0.00000003 Ry

     iteration #  6     ecut=    40.00 Ry     beta= 0.70
     Davidson diagonalization with overlap
     ethr =  2.98E-10,  avg # of iterations =  2.1

     total cpu time spent up to now is        5.8 secs

     total energy              =     -71.38057224 Ry
     Harris-Foulkes estimate   =     -71.38057224 Ry
     estimated scf accuracy    <          1.5E-09 Ry

     iteration #  7     ecut=    40.00 Ry     beta= 0.70
     Davidson diagonalization with overlap
     ethr =  1.48E-11,  avg # of iterations =  1.2

     total cpu time spent up to now is        5.9 secs

     total energy              =     -71.38057223 Ry
     Harris-Foulkes estimate   =     -71.38057224 Ry
     estimated scf accuracy    <          2.1E-09 Ry

     iteration #  8     ecut=    40.00 Ry     beta= 0.70
     Davidson diagonalization with overlap
     ethr =  1.48E-11,  avg # of iterations =  2.1

     total cpu time spent up to now is        6.0 secs

     End of self-consistent calculation

          k = 0.0000 0.0000 0.0000 (   339 PWs)   bands (ev):

   -89.1074 -10.6493   9.4791   9.4791   9.4791  18.0721  28.3982  28.3982
    28.3982

          k =-0.1268 0.1268-0.1268 (   344 PWs)   bands (ev):

   -89.1072 -10.3670   8.2553   9.4130   9.4130  18.7169  26.6176  26.8869
    26.8869

          k =-0.2536 0.2536-0.2536 (   356 PWs)   bands (ev):

   -89.1100  -9.5952   5.7218   9.2691   9.2691  19.0422  24.5563  24.5563
    25.4825

          k =-0.3804 0.3804-0.3804 (   359 PWs)   bands (ev):

   -89.1088  -8.6296   3.3548   9.1498   9.1498  18.3173  22.8717  22.8717
    26.3015

          k = 0.5073-0.5073 0.5073 (   368 PWs)   bands (ev):

   -89.1112  -8.1362   2.3432   9.1069   9.1069  17.9268  22.2711  22.2711
    26.8643

          k = 0.0000 0.2536 0.0000 (   347 PWs)   bands (ev):

   -89.1086 -10.2694   8.5274   9.0015   9.0015  19.1347  25.6208  27.3454
    27.3454

          k =-0.1268 0.3804-0.1268 (   357 PWs)   bands (ev):

   -89.1105  -9.6480   6.5260   8.6195   8.8638  20.0304  23.6925  25.2833
    26.1771

          k =-0.2536 0.5073-0.2536 (   358 PWs)   bands (ev):

   -89.1079  -8.7088   4.1392   8.4467   8.4802  19.7332  22.3800  24.4540
    25.5357

          k = 0.6341-0.3804 0.6341 (   363 PWs)   bands (ev):

   -89.1087  -7.9885   2.6567   7.9368   8.6532  19.1246  22.1166  23.1523
    26.4611

          k = 0.5073-0.2536 0.5073 (   359 PWs)   bands (ev):

   -89.1073  -8.1656   3.0207   7.6429   9.0484  19.1261  22.7390  22.8276
    26.2270

          k = 0.3804-0.1268 0.3804 (   355 PWs)   bands (ev):

   -89.1074  -9.0476   4.9548   7.7477   9.4441  19.6409  23.4098  24.1202
    25.2591

          k = 0.2536 0.0000 0.2536 (   353 PWs)   bands (ev):

   -89.1095  -9.9158   7.1328   8.4192   9.6000  19.4639  25.0617  25.3551
    25.7971

          k = 0.0000 0.5073 0.0000 (   351 PWs)   bands (ev):

   -89.1070  -9.1878   6.1516   7.9486   7.9486  21.4366  22.3836  24.8244
    27.0441

          k =-0.1268 0.6341-0.1268 (   355 PWs)   bands (ev):

   -89.1056  -8.3606   4.4594   7.2387   7.6008  21.0631  22.5841  24.0900
    26.4656

          k = 0.7609-0.2536 0.7609 (   362 PWs)   bands (ev):

   -89.1074  -7.5840   3.1884   6.1458   7.7208  20.3867  22.7378  25.1602
    25.3074

          k = 0.6341-0.1268 0.6341 (   363 PWs)   bands (ev):

   -89.1078  -7.5030   3.3066   5.3167   8.2665  20.0838  23.4888  23.9494
    25.5173

          k = 0.5073 0.0000 0.5073 (   363 PWs)   bands (ev):

   -89.1088  -8.1946   4.4231   5.6202   8.9901  20.1732  23.2600  24.1325
    24.7499

          k = 0.0000 0.7609 0.0000 (   351 PWs)   bands (ev):

   -89.1026  -7.7013   3.3765   7.0126   7.0126  20.2455  22.7356  24.4974
    27.5333

          k = 0.8877-0.1268 0.8877 (   360 PWs)   bands (ev):

   -89.1061  -7.0847   2.5578   6.1626   6.9428  20.1140  22.7898  25.2065
    27.0802

          k = 0.7609 0.0000 0.7609 (   363 PWs)   bands (ev):

   -89.1072  -7.0034   2.9817   4.8600   7.4173  20.1449  24.0266  25.1232
    25.6487

          k = 0.0000-1.0145 0.0000 (   342 PWs)   bands (ev):

   -89.0968  -6.8366   1.9762   6.6545   6.6545  19.7496  22.0351  25.7802
    27.8672

          k =-0.2536 0.5073-0.0000 (   354 PWs)   bands (ev):

   -89.1065  -8.9197   5.3479   7.1743   8.7556  20.9598  22.5249  24.1963
    25.8937

          k = 0.6341-0.3804 0.8877 (   360 PWs)   bands (ev):

   -89.1071  -8.0232   3.7524   6.3402   8.3570  20.7835  22.1748  24.2202
    25.5247

          k = 0.5073-0.2536 0.7609 (   370 PWs)   bands (ev):

   -89.1110  -7.5738   2.9463   6.1538   8.1185  20.4659  22.2424  23.9771
    25.9202

          k = 0.7609-0.2536 1.0145 (   353 PWs)   bands (ev):

   -89.1032  -7.5941   3.4864   6.1024   7.3000  20.9689  23.3792  23.5421
    26.4589

          k = 0.6341-0.1268 0.8877 (   365 PWs)   bands (ev):

   -89.1080  -7.1015   3.2432   4.9182   7.2110  21.1595  23.4314  24.4789
    25.4083

          k = 0.5073 0.0000 0.7609 (   364 PWs)   bands (ev):

   -89.1077  -7.3158   3.9579   4.3555   7.6937  21.2371  23.0598  24.3610
    25.1986

          k =-0.2536-1.0145 0.0000 (   362 PWs)   bands (ev):

   -89.1069  -6.8618   2.4833   5.6970   6.7211  20.5687  23.0257  25.4235
    26.1066

          k =-0.5073-1.0145 0.0000 (   360 PWs)   bands (ev):

   -89.1051  -6.8866   3.8901   3.8901   6.7885  22.8812  22.9909  24.4644
    24.4644

     the Fermi energy is    13.7503 ev

!    total energy              =     -71.38057223 Ry
     Harris-Foulkes estimate   =     -71.38057223 Ry
     estimated scf accuracy    <          6.6E-12 Ry

     total all-electron energy =       -71.380572 Ry

     The total energy is the sum of the following terms:

     one-electron contribution =     -17.56469137 Ry
     hartree contribution      =       8.01653714 Ry
     xc contribution           =     -11.35919730 Ry
     ewald contribution        =     -42.43813507 Ry
     one-center paw contrib.   =      -8.03508564 Ry
     smearing contrib. (-TS)   =       0.00000000 Ry

     convergence has been achieved in   8 iterations

     Forces acting on atoms (cartesian axes, Ry/au):

     atom    1 type  1   force =     0.00000000    0.00000000    0.00000000
     atom    2 type  2   force =    -0.00000000   -0.00000000   -0.00000000

     Total force =     0.000000     Total SCF correction =     0.000000


     Computing stress (Cartesian axis) and pressure

          total   stress  (Ry/bohr**3)                   (kbar)     P=   -0.02
  -0.00000012   0.00000000   0.00000000         -0.02      0.00      0.00
   0.00000000  -0.00000012  -0.00000000          0.00     -0.02     -0.00
   0.00000000  -0.00000000  -0.00000012          0.00     -0.00     -0.02


     bfgs converged in   4 scf cycles and   3 bfgs steps
     (criteria: energy <  1.0E-04 Ry, force <  1.0E-03Ry/Bohr, cell <  5.0E-01kbar)

     End of BFGS Geometry Optimization

     Final enthalpy =     -71.3805722344 Ry
Begin final coordinates
     new unit-cell volume =     80.37036 a.u.^3 (    11.90966 Ang^3 )
     density =      3.48731 g/cm^3

CELL_PARAMETERS (alat=  6.95000000)
  -0.492837594  -0.000000000   0.492837594
   0.000000000   0.492837594   0.492837594
  -0.492837594   0.492837594  -0.000000000

ATOMIC_POSITIONS (crystal)
O        0.000000000  -0.000000000  -0.000000000
Be       0.500000000   0.500000000   0.500000000
End final coordinates



     Writing output data file relax.save/

     A final scf calculation at the relaxed structure.
     The G-vectors are recalculated for the final unit cell
     Results may differ from those at the preceding step.
 
     Parallelization info
     --------------------
     sticks:   dense  smooth     PW     G-vecs:    dense   smooth      PW
     Min          78      63     21                  958      682     133
     Max          79      64     22                  963      686     136
     Sum         313     253     85                 3839     2733     537
 


     bravais-lattice index     =            2
     lattice parameter (alat)  =       6.9500  a.u.
     unit-cell volume          =      80.3704 (a.u.)^3
     number of atoms/cell      =            2
     number of atomic types    =            2
     number of electrons       =        10.00
     number of Kohn-Sham states=            9
     kinetic-energy cutoff     =      40.0000  Ry
     charge density cutoff     =     200.0000  Ry
     convergence threshold     =      1.0E-10
     mixing beta               =       0.7000
     number of iterations used =            8  plain     mixing
     Exchange-correlation      = SLA PW PBX PBC ( 1  4  3  4 0 0)

     celldm(1)=   6.950000  celldm(2)=   0.000000  celldm(3)=   0.000000
     celldm(4)=   0.000000  celldm(5)=   0.000000  celldm(6)=   0.000000

     crystal axes: (cart. coord. in units of alat)
               a(1) = (  -0.492838  -0.000000   0.492838 )  
               a(2) = (   0.000000   0.492838   0.492838 )  
               a(3) = (  -0.492838   0.492838  -0.000000 )  

     reciprocal axes: (cart. coord. in units 2 pi/alat)
               b(1) = ( -1.014533 -1.014533  1.014533 )  
               b(2) = (  1.014533  1.014533  1.014533 )  
               b(3) = ( -1.014533  1.014533 -1.014533 )  


     PseudoPot. # 1 for O  read from file:
     ./O.GGA-PBE-paw.UPF
     MD5 check sum: 2c1db26b783d58193643af60ca72eab2
     Pseudo is Projector augmented-wave + core cor, Zval =  6.0
     Generated using ATOMPAW code
     Shape of augmentation charge: SINC**2
     Using radial grid of 2342 points,  4 beta functions with: 
                l(1) =   0
                l(2) =   0
                l(3) =   1
                l(4) =   1
     Q(r) pseudized with 0 coefficients 


     PseudoPot. # 2 for Be read from file:
     ./Be.GGA-PBE-paw.UPF
     MD5 check sum: 77d0fc34c2c508c4ac39018e9d9803b4
     Pseudo is Projector augmented-wave + core cor, Zval =  4.0
     Generated using ATOMPAW code
     Shape of augmentation charge: SINC**2
     Using radial grid of 2342 points,  4 beta functions with: 
                l(1) =   0
                l(2) =   0
                l(3) =   1
                l(4) =   1
     Q(r) pseudized with 0 coefficients 


     atomic species   valence    mass     pseudopotential
        O              6.00    15.99940     O ( 1.00)
        Be             4.00     9.01218     Be( 1.00)

     48 Sym. Ops., with inversion, found



   Cartesian axes

     site n.     atom                  positions (alat units)
         1           O   tau(   1) = (  -0.0000000  -0.0000000   0.0000000  )
         2           Be  tau(   2) = (  -0.4928376   0.4928376   0.4928376  )

     number of k points=    29  Fermi-Dirac smearing, width (Ry)=  0.0020
                       cart. coord. in units 2pi/alat
        k(    1) = (   0.0000000   0.0000000   0.0000000), wk =   0.0039062
        k(    2) = (  -0.1268166   0.1268166  -0.1268166), wk =   0.0312500
        k(    3) = (  -0.2536332   0.2536332  -0.2536332), wk =   0.0312500
        k(    4) = (  -0.3804499   0.3804499  -0.3804499), wk =   0.0312500
        k(    5) = (   0.5072665  -0.5072665   0.5072665), wk =   0.0156250
        k(    6) = (   0.0000000   0.2536332   0.0000000), wk =   0.0234375
        k(    7) = (  -0.1268166   0.3804499  -0.1268166), wk =   0.0937500
        k(    8) = (  -0.2536332   0.5072665  -0.2536332), wk =   0.0937500
        k(    9) = (   0.6340831  -0.3804499   0.6340831), wk =   0.0937500
        k(   10) = (   0.5072665  -0.2536332   0.5072665), wk =   0.0937500
        k(   11) = (   0.3804499  -0.1268166   0.3804499), wk =   0.0937500
        k(   12) = (   0.2536332   0.0000000   0.2536332), wk =   0.0468750
        k(   13) = (   0.0000000   0.5072665   0.0000000), wk =   0.0234375
        k(   14) = (  -0.1268166   0.6340831  -0.1268166), wk =   0.0937500
        k(   15) = (   0.7608997  -0.2536332   0.7608997), wk =   0.0937500
        k(   16) = (   0.6340831  -0.1268166   0.6340831), wk =   0.0937500
        k(   17) = (   0.5072665   0.0000000   0.5072665), wk =   0.0468750
        k(   18) = (   0.0000000   0.7608997   0.0000000), wk =   0.0234375
        k(   19) = (   0.8877164  -0.1268166   0.8877164), wk =   0.0937500
        k(   20) = (   0.7608997   0.0000000   0.7608997), wk =   0.0468750
        k(   21) = (   0.0000000  -1.0145330   0.0000000), wk =   0.0117188
        k(   22) = (  -0.2536332   0.5072665  -0.0000000), wk =   0.0937500
        k(   23) = (   0.6340831  -0.3804499   0.8877164), wk =   0.1875000
        k(   24) = (   0.5072665  -0.2536332   0.7608997), wk =   0.0937500
        k(   25) = (   0.7608997  -0.2536332   1.0145330), wk =   0.0937500
        k(   26) = (   0.6340831  -0.1268166   0.8877164), wk =   0.1875000
        k(   27) = (   0.5072665   0.0000000   0.7608997), wk =   0.0937500
        k(   28) = (  -0.2536332  -1.0145330   0.0000000), wk =   0.0468750
        k(   29) = (  -0.5072665  -1.0145330   0.0000000), wk =   0.0234375

     Dense  grid:     3839 G-vectors     FFT dimensions: (  24,  24,  24)

     Smooth grid:     2733 G-vectors     FFT dimensions: (  20,  20,  20)

     Estimated max dynamical RAM per process >       3.22 MB

     Estimated total dynamical RAM >      12.89 MB

     Initial potential from superposition of free atoms

     starting charge    9.99981, renormalised to   10.00000
     Starting wfcs are   16 randomized atomic wfcs
     Checking if some PAW data can be deallocated... 

     total cpu time spent up to now is        6.8 secs

     Self-consistent Calculation

     iteration #  1     ecut=    40.00 Ry     beta= 0.70
     Davidson diagonalization with overlap
     ethr =  1.00E-06,  avg # of iterations =  6.3

     total cpu time spent up to now is        7.0 secs

     total energy              =     -71.29025939 Ry
     Harris-Foulkes estimate   =     -71.44276695 Ry
     estimated scf accuracy    <       0.19956838 Ry

     iteration #  2     ecut=    40.00 Ry     beta= 0.70
     Davidson diagonalization with overlap
     ethr =  2.00E-03,  avg # of iterations =  2.1

     total cpu time spent up to now is        7.2 secs

     total energy              =     -71.35094515 Ry
     Harris-Foulkes estimate   =     -71.42092337 Ry
     estimated scf accuracy    <       0.12912672 Ry

     iteration #  3     ecut=    40.00 Ry     beta= 0.70
     Davidson diagonalization with overlap
     ethr =  1.29E-03,  avg # of iterations =  1.9

     total cpu time spent up to now is        7.3 secs

     total energy              =     -71.37812245 Ry
     Harris-Foulkes estimate   =     -71.37793724 Ry
     estimated scf accuracy    <       0.00059141 Ry

     iteration #  4     ecut=    40.00 Ry     beta= 0.70
     Davidson diagonalization with overlap
     ethr =  5.91E-06,  avg # of iterations =  2.4

     total cpu time spent up to now is        7.4 secs

     total energy              =     -71.37839941 Ry
     Harris-Foulkes estimate   =     -71.37840872 Ry
     estimated scf accuracy    <       0.00002666 Ry

     iteration #  5     ecut=    40.00 Ry     beta= 0.70
     Davidson diagonalization with overlap
     ethr =  2.67E-07,  avg # of iterations =  1.7

     total cpu time spent up to now is        7.5 secs

     total energy              =     -71.37840297 Ry
     Harris-Foulkes estimate   =     -71.37840308 Ry
     estimated scf accuracy    <       0.00000151 Ry

     iteration #  6     ecut=    40.00 Ry     beta= 0.70
     Davidson diagonalization with overlap
     ethr =  1.51E-08,  avg # of iterations =  1.7

     total cpu time spent up to now is        7.7 secs

     total energy              =     -71.37840305 Ry
     Harris-Foulkes estimate   =     -71.37840311 Ry
     estimated scf accuracy    <       0.00000014 Ry

     iteration #  7     ecut=    40.00 Ry     beta= 0.70
     Davidson diagonalization with overlap
     ethr =  1.42E-09,  avg # of iterations =  2.0

     total cpu time spent up to now is        7.8 secs

     total energy              =     -71.37840308 Ry
     Harris-Foulkes estimate   =     -71.37840308 Ry
     estimated scf accuracy    <          1.0E-10 Ry

     iteration #  8     ecut=    40.00 Ry     beta= 0.70
     Davidson diagonalization with overlap
     ethr =  1.04E-12,  avg # of iterations =  3.0

     total cpu time spent up to now is        7.9 secs

     End of self-consistent calculation

          k = 0.0000 0.0000 0.0000 (   331 PWs)   bands (ev):

   -89.1331 -10.6499   9.4792   9.4792   9.4792  18.0721  28.3963  28.3963
    28.3963

          k =-0.1268 0.1268-0.1268 (   335 PWs)   bands (ev):

   -89.1331 -10.3681   8.2548   9.4124   9.4124  18.7188  26.6178  26.8856
    26.8856

          k =-0.2536 0.2536-0.2536 (   344 PWs)   bands (ev):

   -89.1338  -9.5963   5.7221   9.2693   9.2693  19.0427  24.5557  24.5557
    25.4858

          k =-0.3804 0.3804-0.3804 (   350 PWs)   bands (ev):

   -89.1347  -8.6308   3.3540   9.1499   9.1499  18.3166  22.8708  22.8708
    26.3054

          k = 0.5073-0.5073 0.5073 (   344 PWs)   bands (ev):

   -89.1297  -8.1373   2.3454   9.1078   9.1078  17.9262  22.2703  22.2703
    26.8736

          k = 0.0000 0.2536 0.0000 (   335 PWs)   bands (ev):

   -89.1323 -10.2705   8.5271   9.0013   9.0013  19.1384  25.6229  27.3440
    27.3440

          k =-0.1268 0.3804-0.1268 (   338 PWs)   bands (ev):

   -89.1305  -9.6487   6.5270   8.6200   8.8652  20.0325  23.6934  25.2849
    26.1762

          k =-0.2536 0.5073-0.2536 (   343 PWs)   bands (ev):

   -89.1302  -8.7097   4.1401   8.4481   8.4806  19.7328  22.3802  24.4532
    25.5383

          k = 0.6341-0.3804 0.6341 (   343 PWs)   bands (ev):

   -89.1277  -7.9896   2.6582   7.9381   8.6545  19.1242  22.1180  23.1515
    26.4682

          k = 0.5073-0.2536 0.5073 (   340 PWs)   bands (ev):

   -89.1261  -8.1666   3.0222   7.6448   9.0490  19.1256  22.7383  22.8282
    26.2347

          k = 0.3804-0.1268 0.3804 (   341 PWs)   bands (ev):

   -89.1300  -9.0484   4.9564   7.7487   9.4443  19.6403  23.4087  24.1200
    25.2619

          k = 0.2536 0.0000 0.2536 (   337 PWs)   bands (ev):

   -89.1307  -9.9166   7.1323   8.4197   9.6013  19.4664  25.0608  25.3546
    25.8006

          k = 0.0000 0.5073 0.0000 (   343 PWs)   bands (ev):

   -89.1331  -9.1887   6.1528   7.9484   7.9484  21.4360  22.3840  24.8250
    27.0430

          k =-0.1268 0.6341-0.1268 (   337 PWs)   bands (ev):

   -89.1261  -8.3615   4.4602   7.2390   7.6019  21.0675  22.5839  24.0917
    26.4649

          k = 0.7609-0.2536 0.7609 (   346 PWs)   bands (ev):

   -89.1292  -7.5851   3.1895   6.1473   7.7207  20.3889  22.7392  25.1590
    25.3096

          k = 0.6341-0.1268 0.6341 (   347 PWs)   bands (ev):

   -89.1289  -7.5043   3.3078   5.3174   8.2669  20.0843  23.4924  23.9487
    25.5208

          k = 0.5073 0.0000 0.5073 (   343 PWs)   bands (ev):

   -89.1286  -8.1954   4.4242   5.6214   8.9912  20.1728  23.2594  24.1325
    24.7580

          k = 0.0000 0.7609 0.0000 (   327 PWs)   bands (ev):

   -89.1173  -7.7020   3.3790   7.0146   7.0146  20.2558  22.7365  24.4977
    27.5328

          k = 0.8877-0.1268 0.8877 (   344 PWs)   bands (ev):

   -89.1277  -7.0859   2.5584   6.1635   6.9434  20.1205  22.7911  25.2063
    27.0797

          k = 0.7609 0.0000 0.7609 (   347 PWs)   bands (ev):

   -89.1284  -7.0047   2.9826   4.8623   7.4172  20.1488  24.0309  25.1230
    25.6473

          k = 0.0000-1.0145 0.0000 (   342 PWs)   bands (ev):

   -89.1275  -6.8381   1.9758   6.6537   6.6537  19.7479  22.0356  25.7790
    27.8655

          k =-0.2536 0.5073-0.0000 (   339 PWs)   bands (ev):

   -89.1287  -8.9206   5.3498   7.1748   8.7563  20.9593  22.5260  24.1966
    25.8949

          k = 0.6341-0.3804 0.8877 (   344 PWs)   bands (ev):

   -89.1287  -8.0244   3.7535   6.3409   8.3577  20.7830  22.1770  24.2198
    25.5289

          k = 0.5073-0.2536 0.7609 (   346 PWs)   bands (ev):

   -89.1284  -7.5750   2.9471   6.1550   8.1203  20.4654  22.2462  23.9769
    25.9287

          k = 0.7609-0.2536 1.0145 (   340 PWs)   bands (ev):

   -89.1262  -7.5953   3.4868   6.1028   7.3002  20.9738  23.3794  23.5416
    26.4601

          k = 0.6341-0.1268 0.8877 (   347 PWs)   bands (ev):

   -89.1284  -7.1028   3.2436   4.9197   7.2116  21.1633  23.4344  24.4790
    25.4103

          k = 0.5073 0.0000 0.7609 (   346 PWs)   bands (ev):

   -89.1280  -7.3170   3.9589   4.3562   7.6951  21.2382  23.0649  24.3607
    25.2016

          k =-0.2536-1.0145 0.0000 (   342 PWs)   bands (ev):

   -89.1251  -6.8631   2.4845   5.6985   6.7221  20.5790  23.0259  25.4237
    26.1084

          k =-0.5073-1.0145 0.0000 (   360 PWs)   bands (ev):

   -89.1358  -6.8880   3.8896   3.8896   6.7876  22.8796  22.9895  24.4637
    24.4637

     the Fermi energy is    13.7456 ev

!    total energy              =     -71.37840308 Ry
     Harris-Foulkes estimate   =     -71.37840308 Ry
     estimated scf accuracy    <          4.8E-11 Ry

     total all-electron energy =       -71.378403 Ry

     The total energy is the sum of the following terms:

     one-electron contribution =     -17.55916541 Ry
     hartree contribution      =       8.01570180 Ry
     xc contribution           =     -11.35923928 Ry
     ewald contribution        =     -42.43813508 Ry
     one-center paw contrib.   =      -8.03756512 Ry
     smearing contrib. (-TS)   =       0.00000000 Ry

     convergence has been achieved in   8 iterations

     Forces acting on atoms (cartesian axes, Ry/au):

     atom    1 type  1   force =     0.00000000    0.00000000    0.00000000
     atom    2 type  2   force =    -0.00000000   -0.00000000    0.00000000

     Total force =     0.000000     Total SCF correction =     0.000000


     Computing stress (Cartesian axis) and pressure

          total   stress  (Ry/bohr**3)                   (kbar)     P=  -32.29
  -0.00021948  -0.00000000  -0.00000000        -32.29     -0.00     -0.00
   0.00000000  -0.00021948   0.00000000          0.00    -32.29      0.00
  -0.00000000   0.00000000  -0.00021948         -0.00      0.00    -32.29


     Writing output data file relax.save/
 
     init_run     :      0.79s CPU      0.80s WALL (       2 calls)
     electrons    :      4.18s CPU      4.57s WALL (       5 calls)
     update_pot   :      0.43s CPU      0.43s WALL (       3 calls)
     forces       :      0.35s CPU      0.35s WALL (       5 calls)
     stress       :      0.70s CPU      0.70s WALL (       5 calls)

     Called by init_run:
     wfcinit      :      0.06s CPU      0.07s WALL (       2 calls)
     potinit      :      0.12s CPU      0.12s WALL (       2 calls)
     hinit0       :      0.61s CPU      0.61s WALL (       2 calls)

     Called by electrons:
     c_bands      :      2.04s CPU      2.36s WALL (      45 calls)
     sum_band     :      0.35s CPU      0.40s WALL (      45 calls)
     v_of_rho     :      0.06s CPU      0.06s WALL (      49 calls)
     newd         :      0.03s CPU      0.03s WALL (      49 calls)
     PAW_pot      :      1.95s CPU      1.96s WALL (      52 calls)
     mix_rho      :      0.01s CPU      0.01s WALL (      45 calls)

     Called by c_bands:
     init_us_2    :      0.05s CPU      0.06s WALL (    3045 calls)
     cegterg      :      1.95s CPU      2.25s WALL (    1305 calls)

     Called by sum_band:
     sum_band:bec :      0.00s CPU      0.01s WALL (    1392 calls)
     addusdens    :      0.02s CPU      0.03s WALL (      45 calls)

     Called by *egterg:
     h_psi        :      1.36s CPU      1.57s WALL (    4224 calls)
     s_psi        :      0.03s CPU      0.03s WALL (    4224 calls)
     g_psi        :      0.01s CPU      0.01s WALL (    2861 calls)
     cdiaghg      :      0.40s CPU      0.46s WALL (    4050 calls)

     Called by h_psi:
     h_psi:pot    :      1.35s CPU      1.56s WALL (    4224 calls)
     h_psi:calbec :      0.05s CPU      0.06s WALL (    4224 calls)
     vloc_psi     :      1.25s CPU      1.44s WALL (    4224 calls)
     add_vuspsi   :      0.03s CPU      0.03s WALL (    4224 calls)

     General routines
     calbec       :      0.07s CPU      0.08s WALL (    6341 calls)
     fft          :      0.04s CPU      0.04s WALL (     761 calls)
     ffts         :      0.00s CPU      0.00s WALL (      94 calls)
     fftw         :      1.33s CPU      1.54s WALL (   71709 calls)
     interpolate  :      0.01s CPU      0.01s WALL (      49 calls)
 
     Parallel routines
     fft_scatt_xy :      0.20s CPU      0.23s WALL (   72564 calls)
     fft_scatt_yz :      0.59s CPU      0.68s WALL (   72564 calls)
 
     PWSCF        :     7.54s CPU         8.03s WALL

 
   This run was terminated on:  14:11: 8  16Jul2019            

=------------------------------------------------------------------------------=
   JOB DONE.
=------------------------------------------------------------------------------=
