===== VARIABLES =====
EXE_PATH = /scr/szymansk/2019-3/qe-bin/bin/pw.x
tpp = 4
Parallel keywords = -nimage 1
MPIRUN_EXE = orterun
PATH = /scr/szymansk/2019-3/mmshare-v4.7/lib/Linux-x86_64/openmpi/bin:/scr/szymansk/2019-3/internal/bin:/scr/szymansk/2019-3/mmshare-v4.7/bin/Linux-x86_64:/scr/szymansk/gaopaw/Examples/Si/workdir_pp.3:.:/scr/szymansk/gaopaw/Examples/Si:/scr/szymansk/gaopaw/scripts:/home/szymansk/bin:/scr/szymansk/dakota/bin:/scr/szymansk/atompaw-4.1.0.5/src/:/usr/lib64/qt-3.3/bin:/usr/local/bin:/usr/local/sbin:/usr/bin:/usr/sbin:/bin:/sbin
LD_LIBRARY_PATH = /scr/szymansk/2019-3/mmshare-v4.7/lib/Linux-x86_64/openmpi/lib:/scr/szymansk/2019-3/internal/lib/ssl:/scr/szymansk/2019-3/internal/lib:/scr/szymansk/2019-3/mmshare-v4.7/lib/Linux-x86_64:/scr/szymansk/2019-3/internal/lib/python3.6/site-packages:/scr/szymansk/dakota/bin:/software/lib/Linux-x86_64/ifort_2017.1.132/mkl/lib/intel64
===== END VARIABLES =====
Invoking: exe_cmd () 
{ 
    "$MPIRUN_EXE" -np $tpp "$EXE_PATH" -in $input_file "${P_KEYWORDS[@]}"
}

     Program PWSCF v.6.3MaX starts on 31Jul2019 at 17:30:40 

     This program is part of the open-source Quantum ESPRESSO suite
     for quantum simulation of materials; please cite
         "P. Giannozzi et al., J. Phys.:Condens. Matter 21 395502 (2009);
         "P. Giannozzi et al., J. Phys.:Condens. Matter 29 465901 (2017);
          URL http://www.quantum-espresso.org", 
     in publications or presentations arising from this work. More details at
     http://www.quantum-espresso.org/quote

     Parallel version (MPI), running on     4 processors

     MPI processes distributed on     1 nodes
     R & G space division:  proc/nbgrp/npool/nimage =       4
     Reading input from C.FCC.relax.in

     Current dimensions of program PWSCF are:
     Max number of different atomic species (ntypx) = 10
     Max number of k-points (npk) =  40000
     Max angular momentum in pseudopotentials (lmaxx) =  3
               file C.GGA-PBE-paw.UPF: wavefunction(s)  Xn Xn renormalized

     Subspace diagonalization in iterative solution of the eigenvalue problem:
     a serial algorithm will be used

 
     Parallelization info
     --------------------
     sticks:   dense  smooth     PW     G-vecs:    dense   smooth      PW
     Min          59      49     17                  605      439      96
     Max          61      50     19                  606      440      97
     Sum         241     199     73                 2421     1759     387
 


     bravais-lattice index     =            2
     lattice parameter (alat)  =       5.8640  a.u.
     unit-cell volume          =      50.4106 (a.u.)^3
     number of atoms/cell      =            1
     number of atomic types    =            1
     number of electrons       =         4.00
     number of Kohn-Sham states=            6
     kinetic-energy cutoff     =      40.0000  Ry
     charge density cutoff     =     200.0000  Ry
     convergence threshold     =      1.0E-08
     mixing beta               =       0.7000
     number of iterations used =            8  plain     mixing
     Exchange-correlation      = SLA PW PBX PBC ( 1  4  3  4 0 0)
     nstep                     =           50


     celldm(1)=   5.864000  celldm(2)=   0.000000  celldm(3)=   0.000000
     celldm(4)=   0.000000  celldm(5)=   0.000000  celldm(6)=   0.000000

     crystal axes: (cart. coord. in units of alat)
               a(1) = (  -0.500000   0.000000   0.500000 )  
               a(2) = (   0.000000   0.500000   0.500000 )  
               a(3) = (  -0.500000   0.500000   0.000000 )  

     reciprocal axes: (cart. coord. in units 2 pi/alat)
               b(1) = ( -1.000000 -1.000000  1.000000 )  
               b(2) = (  1.000000  1.000000  1.000000 )  
               b(3) = ( -1.000000  1.000000 -1.000000 )  


     PseudoPot. # 1 for C  read from file:
     ./C.GGA-PBE-paw.UPF
     MD5 check sum: c97fbc28fe946507017b415a81afdaaf
     Pseudo is Projector augmented-wave + core cor, Zval =  4.0
     Generated using ATOMPAW code
     Shape of augmentation charge: SINC**2
     Using radial grid of 2342 points,  4 beta functions with: 
                l(1) =   0
                l(2) =   0
                l(3) =   1
                l(4) =   1
     Q(r) pseudized with 0 coefficients 


     atomic species   valence    mass     pseudopotential
        C              4.00    12.01070     C ( 1.00)

     48 Sym. Ops., with inversion, found



   Cartesian axes

     site n.     atom                  positions (alat units)
         1           C   tau(   1) = (   0.0000000   0.0000000   0.0000000  )

     number of k points=    29  Fermi-Dirac smearing, width (Ry)=  0.0020
                       cart. coord. in units 2pi/alat
        k(    1) = (   0.0000000   0.0000000   0.0000000), wk =   0.0039062
        k(    2) = (  -0.1250000   0.1250000  -0.1250000), wk =   0.0312500
        k(    3) = (  -0.2500000   0.2500000  -0.2500000), wk =   0.0312500
        k(    4) = (  -0.3750000   0.3750000  -0.3750000), wk =   0.0312500
        k(    5) = (   0.5000000  -0.5000000   0.5000000), wk =   0.0156250
        k(    6) = (   0.0000000   0.2500000   0.0000000), wk =   0.0234375
        k(    7) = (  -0.1250000   0.3750000  -0.1250000), wk =   0.0937500
        k(    8) = (  -0.2500000   0.5000000  -0.2500000), wk =   0.0937500
        k(    9) = (   0.6250000  -0.3750000   0.6250000), wk =   0.0937500
        k(   10) = (   0.5000000  -0.2500000   0.5000000), wk =   0.0937500
        k(   11) = (   0.3750000  -0.1250000   0.3750000), wk =   0.0937500
        k(   12) = (   0.2500000   0.0000000   0.2500000), wk =   0.0468750
        k(   13) = (   0.0000000   0.5000000   0.0000000), wk =   0.0234375
        k(   14) = (  -0.1250000   0.6250000  -0.1250000), wk =   0.0937500
        k(   15) = (   0.7500000  -0.2500000   0.7500000), wk =   0.0937500
        k(   16) = (   0.6250000  -0.1250000   0.6250000), wk =   0.0937500
        k(   17) = (   0.5000000   0.0000000   0.5000000), wk =   0.0468750
        k(   18) = (   0.0000000   0.7500000   0.0000000), wk =   0.0234375
        k(   19) = (   0.8750000  -0.1250000   0.8750000), wk =   0.0937500
        k(   20) = (   0.7500000   0.0000000   0.7500000), wk =   0.0468750
        k(   21) = (   0.0000000  -1.0000000   0.0000000), wk =   0.0117188
        k(   22) = (  -0.2500000   0.5000000   0.0000000), wk =   0.0937500
        k(   23) = (   0.6250000  -0.3750000   0.8750000), wk =   0.1875000
        k(   24) = (   0.5000000  -0.2500000   0.7500000), wk =   0.0937500
        k(   25) = (   0.7500000  -0.2500000   1.0000000), wk =   0.0937500
        k(   26) = (   0.6250000  -0.1250000   0.8750000), wk =   0.1875000
        k(   27) = (   0.5000000   0.0000000   0.7500000), wk =   0.0937500
        k(   28) = (  -0.2500000  -1.0000000   0.0000000), wk =   0.0468750
        k(   29) = (  -0.5000000  -1.0000000   0.0000000), wk =   0.0234375

     Dense  grid:     2421 G-vectors     FFT dimensions: (  20,  20,  20)

     Smooth grid:     1759 G-vectors     FFT dimensions: (  18,  18,  18)

     Estimated max dynamical RAM per process >       1.61 MB

     Estimated total dynamical RAM >       6.43 MB

     Check: negative/imaginary core charge=   -0.000026    0.000000

     Initial potential from superposition of free atoms

     starting charge    3.99995, renormalised to    4.00000
     Starting wfcs are    8 randomized atomic wfcs
     Checking if some PAW data can be deallocated... 

     total cpu time spent up to now is        0.6 secs

     Self-consistent Calculation

     iteration #  1     ecut=    40.00 Ry     beta= 0.70
     Davidson diagonalization with overlap
     ethr =  1.00E-02,  avg # of iterations =  4.3

     Threshold (ethr) on eigenvalues was too large:
     Diagonalizing with lowered threshold

     Davidson diagonalization with overlap
     ethr =  1.68E-05,  avg # of iterations =  2.6

     total cpu time spent up to now is        0.7 secs

     total energy              =     -18.10659711 Ry
     Harris-Foulkes estimate   =     -18.10671166 Ry
     estimated scf accuracy    <       0.00066738 Ry

     iteration #  2     ecut=    40.00 Ry     beta= 0.70
     Davidson diagonalization with overlap
     ethr =  1.67E-05,  avg # of iterations =  1.0

     total cpu time spent up to now is        0.8 secs

     total energy              =     -18.10664753 Ry
     Harris-Foulkes estimate   =     -18.10663504 Ry
     estimated scf accuracy    <       0.00003258 Ry

     iteration #  3     ecut=    40.00 Ry     beta= 0.70
     Davidson diagonalization with overlap
     ethr =  8.14E-07,  avg # of iterations =  1.3

     total cpu time spent up to now is        0.8 secs

     total energy              =     -18.10665068 Ry
     Harris-Foulkes estimate   =     -18.10665011 Ry
     estimated scf accuracy    <       0.00000105 Ry

     iteration #  4     ecut=    40.00 Ry     beta= 0.70
     Davidson diagonalization with overlap
     ethr =  2.64E-08,  avg # of iterations =  1.4

     total cpu time spent up to now is        0.9 secs

     End of self-consistent calculation

          k = 0.0000 0.0000 0.0000 (   181 PWs)   bands (ev):

    -8.3954  17.8709  17.8709  17.8709  39.7823  39.7823

          k =-0.1250 0.1250-0.1250 (   214 PWs)   bands (ev):

    -7.7822  16.0726  17.5743  17.5743  36.5121  40.1737

          k =-0.2500 0.2500-0.2500 (   211 PWs)   bands (ev):

    -5.9534  11.5645  16.9431  16.9431  34.5971  39.5493

          k =-0.3750 0.3750-0.3750 (   217 PWs)   bands (ev):

    -2.9511   6.2061  16.4023  16.4023  34.2516  38.0618

          k = 0.5000-0.5000 0.5000 (   228 PWs)   bands (ev):

     0.7068   1.6591  16.1992  16.1992  34.2929  37.2641

          k = 0.0000 0.2500 0.0000 (   214 PWs)   bands (ev):

    -7.5785  16.7844  16.7844  16.9882  34.8571  38.7226

          k =-0.1250 0.3750-0.1250 (   215 PWs)   bands (ev):

    -6.1571  13.4272  15.8754  16.6548  33.2113  35.6236

          k =-0.2500 0.5000-0.2500 (   213 PWs)   bands (ev):

    -3.5490   8.3941  15.3653  15.6921  32.5629  34.6170

          k = 0.6250-0.3750 0.6250 (   219 PWs)   bands (ev):

     0.1272   3.3399  14.7181  15.4603  32.0748  35.2632

          k = 0.5000-0.2500 0.5000 (   216 PWs)   bands (ev):

    -1.1942   4.9560  14.1784  16.1018  33.0210  35.2852

          k = 0.3750-0.1250 0.3750 (   213 PWs)   bands (ev):

    -4.5456  10.1685  14.2995  17.0018  34.8282  35.3389

          k = 0.2500 0.0000 0.2500 (   212 PWs)   bands (ev):

    -6.7644  14.6279  15.3791  17.6594  34.9897  38.4231

          k = 0.0000 0.5000 0.0000 (   218 PWs)   bands (ev):

    -5.1521  14.3251  14.6472  14.6472  30.1328  31.2112

          k =-0.1250 0.6250-0.1250 (   217 PWs)   bands (ev):

    -2.9636  10.8466  13.3785  13.9232  28.6899  30.5291

          k = 0.7500-0.2500 0.7500 (   216 PWs)   bands (ev):

     0.3225   6.2721  11.4399  13.9704  28.1157  33.8899

          k = 0.6250-0.1250 0.6250 (   217 PWs)   bands (ev):

     1.5943   4.8224  10.0902  14.7675  29.1074  37.3341

          k = 0.5000 0.0000 0.5000 (   218 PWs)   bands (ev):

    -1.9739   9.6049   9.6972  16.0067  31.5441  36.7553

          k = 0.0000 0.7500 0.0000 (   214 PWs)   bands (ev):

    -1.2155   9.7034  12.9294  12.9294  26.1576  27.2533

          k = 0.8750-0.1250 0.8750 (   215 PWs)   bands (ev):

     1.6105   7.0730  10.4590  12.7505  25.7674  28.7935

          k = 0.7500 0.0000 0.7500 (   220 PWs)   bands (ev):

     4.6186   5.1329   7.0922  13.4373  26.7409  33.6345

          k = 0.0000-1.0000 0.0000 (   222 PWs)   bands (ev):

     3.4983   4.5041  12.3000  12.3000  24.6650  26.2900

          k =-0.2500 0.5000 0.0000 (   217 PWs)   bands (ev):

    -4.3485  12.0745  12.7910  16.0043  32.4920  32.8540

          k = 0.6250-0.3750 0.8750 (   215 PWs)   bands (ev):

    -1.3923   7.5182  12.0717  14.7675  30.7680  34.7534

          k = 0.5000-0.2500 0.7500 (   212 PWs)   bands (ev):

     2.0761   3.2736  12.1183  14.0506  30.2240  35.9051

          k = 0.7500-0.2500 1.0000 (   218 PWs)   bands (ev):

    -0.4397   9.4069  10.8121  12.4149  28.1451  30.7274

          k = 0.6250-0.1250 0.8750 (   215 PWs)   bands (ev):

     3.0230   6.0390   8.8443  11.9022  28.5418  34.3808

          k = 0.5000 0.0000 0.7500 (   219 PWs)   bands (ev):

     1.7989   7.4706   7.8358  13.0551  29.4947  37.4705

          k =-0.2500-1.0000 0.0000 (   212 PWs)   bands (ev):

     4.3201   4.9449  10.1021  10.9563  26.9209  29.9494

          k =-0.5000-1.0000 0.0000 (   208 PWs)   bands (ev):

     5.5613   6.6893   6.6893   9.6151  29.4677  37.2907

     the Fermi energy is    10.1191 ev

!    total energy              =     -18.10665077 Ry
     Harris-Foulkes estimate   =     -18.10665077 Ry
     estimated scf accuracy    <          2.7E-09 Ry

     total all-electron energy =       -18.106651 Ry

     The total energy is the sum of the following terms:

     one-electron contribution =       4.48026127 Ry
     hartree contribution      =       0.41689720 Ry
     xc contribution           =      -3.41861303 Ry
     ewald contribution        =     -12.50985566 Ry
     one-center paw contrib.   =      -7.07509708 Ry
     smearing contrib. (-TS)   =      -0.00024346 Ry

     convergence has been achieved in   4 iterations

     Forces acting on atoms (cartesian axes, Ry/au):

     atom    1 type  1   force =     0.00000000    0.00000000    0.00000000

     Total force =     0.000000     Total SCF correction =     0.000000


     Computing stress (Cartesian axis) and pressure

          total   stress  (Ry/bohr**3)                   (kbar)     P=   -3.41
  -0.00002316  -0.00000000  -0.00000000         -3.41     -0.00     -0.00
  -0.00000000  -0.00002316   0.00000000         -0.00     -3.41      0.00
  -0.00000000   0.00000000  -0.00002316         -0.00      0.00     -3.41


     BFGS Geometry Optimization

     number of scf cycles    =   1
     number of bfgs steps    =   0

     enthalpy new            =     -18.1066507728 Ry

     new trust radius        =       0.0008220674 bohr
     new conv_thr            =       0.0000000100 Ry

     new unit-cell volume =     50.32310 a.u.^3 (     7.45711 Ang^3 )
     density =      2.67452 g/cm^3

CELL_PARAMETERS (alat=  5.86400000)
  -0.499710541   0.000000000   0.499710541
  -0.000000000   0.499710541   0.499710541
  -0.499710541   0.499710541   0.000000000

ATOMIC_POSITIONS (alat)
C        0.000000000   0.000000000   0.000000000



     Writing output data file relax.save/
     NEW-OLD atomic charge density approx. for the potential

     Check: negative/imaginary core charge=   -0.000026    0.000000
     extrapolated charge    3.99305, renormalised to    4.00000

     total cpu time spent up to now is        1.0 secs

     Self-consistent Calculation

     iteration #  1     ecut=    40.00 Ry     beta= 0.70
     Davidson diagonalization with overlap
     ethr =  1.00E-06,  avg # of iterations =  2.0

     Threshold (ethr) on eigenvalues was too large:
     Diagonalizing with lowered threshold

     Davidson diagonalization with overlap
     ethr =  1.08E-08,  avg # of iterations =  1.0

     total cpu time spent up to now is        1.1 secs

     total energy              =     -18.10665143 Ry
     Harris-Foulkes estimate   =     -18.10040468 Ry
     estimated scf accuracy    <       0.00000043 Ry

     iteration #  2     ecut=    40.00 Ry     beta= 0.70
     Davidson diagonalization with overlap
     ethr =  1.08E-08,  avg # of iterations =  2.0

     total cpu time spent up to now is        1.2 secs

     total energy              =     -18.10665209 Ry
     Harris-Foulkes estimate   =     -18.10665217 Ry
     estimated scf accuracy    <       0.00000016 Ry

     iteration #  3     ecut=    40.00 Ry     beta= 0.70
     Davidson diagonalization with overlap
     ethr =  4.06E-09,  avg # of iterations =  1.0

     total cpu time spent up to now is        1.2 secs

     total energy              =     -18.10665208 Ry
     Harris-Foulkes estimate   =     -18.10665210 Ry
     estimated scf accuracy    <       0.00000003 Ry

     iteration #  4     ecut=    40.00 Ry     beta= 0.70
     Davidson diagonalization with overlap
     ethr =  7.94E-10,  avg # of iterations =  1.2

     total cpu time spent up to now is        1.3 secs

     End of self-consistent calculation

          k = 0.0000 0.0000 0.0000 (   181 PWs)   bands (ev):

    -8.3899  17.9127  17.9127  17.9127  39.8326  39.8326

          k =-0.1251 0.1251-0.1251 (   214 PWs)   bands (ev):

    -7.7759  16.1114  17.6155  17.6155  36.5600  40.2480

          k =-0.2501 0.2501-0.2501 (   211 PWs)   bands (ev):

    -5.9449  11.5957  16.9829  16.9829  34.6479  39.6137

          k =-0.3752 0.3752-0.3752 (   217 PWs)   bands (ev):

    -2.9387   6.2292  16.4410  16.4410  34.3074  38.1099

          k = 0.5003-0.5003 0.5003 (   228 PWs)   bands (ev):

     0.7295   1.6703  16.2376  16.2376  34.3511  37.3111

          k = 0.0000 0.2501 0.0000 (   214 PWs)   bands (ev):

    -7.5720  16.8235  16.8235  17.0300  34.9010  38.7857

          k =-0.1251 0.3752-0.1251 (   215 PWs)   bands (ev):

    -6.1488  13.4618  15.9126  16.6951  33.2555  35.6735

          k =-0.2501 0.5003-0.2501 (   213 PWs)   bands (ev):

    -3.5375   8.4205  15.4015  15.7304  32.6073  34.6679

          k = 0.6254-0.3752 0.6254 (   219 PWs)   bands (ev):

     0.1448   3.3577  14.7545  15.4969  32.1178  35.3205

          k = 0.5003-0.2501 0.5003 (   216 PWs)   bands (ev):

    -1.1792   4.9769  14.2135  16.1398  33.0651  35.3425

          k = 0.3752-0.1251 0.3752 (   213 PWs)   bands (ev):

    -4.5353  10.1976  14.3343  17.0418  34.8798  35.3868

          k = 0.2501 0.0000 0.2501 (   212 PWs)   bands (ev):

    -6.7569  14.6654  15.4147  17.7009  35.0371  38.4795

          k = 0.0000 0.5003 0.0000 (   218 PWs)   bands (ev):

    -5.1427  14.3649  14.6817  14.6817  30.1710  31.2546

          k =-0.1251 0.6254-0.1251 (   217 PWs)   bands (ev):

    -2.9514  10.8787  13.4123  13.9564  28.7297  30.5712

          k = 0.7504-0.2501 0.7504 (   216 PWs)   bands (ev):

     0.3396   6.2955  11.4709  14.0037  28.1552  33.9403

          k = 0.6254-0.1251 0.6254 (   217 PWs)   bands (ev):

     1.6145   4.8416  10.1192  14.8025  29.1481  37.3936

          k = 0.5003 0.0000 0.5003 (   218 PWs)   bands (ev):

    -1.9602   9.6366   9.7213  16.0444  31.5873  36.8105

          k = 0.0000 0.7504 0.0000 (   214 PWs)   bands (ev):

    -1.2011   9.7362  12.9607  12.9607  26.1970  27.2882

          k = 0.8755-0.1251 0.8755 (   215 PWs)   bands (ev):

     1.6285   7.1023  10.4848  12.7815  25.8065  28.8334

          k = 0.7504 0.0000 0.7504 (   220 PWs)   bands (ev):

     4.6497   5.1497   7.1130  13.4696  26.7801  33.6845

          k = 0.0000-1.0006 0.0000 (   222 PWs)   bands (ev):

     3.5128   4.5351  12.3301  12.3301  24.7045  26.3238

          k =-0.2501 0.5003 0.0000 (   217 PWs)   bands (ev):

    -4.3380  12.1093  12.8211  16.0425  32.5370  32.8992

          k = 0.6254-0.3752 0.8755 (   215 PWs)   bands (ev):

    -1.3777   7.5433  12.1036  14.8024  30.8110  34.8049

          k = 0.5003-0.2501 0.7504 (   212 PWs)   bands (ev):

     2.1005   3.2871  12.1511  14.0834  30.2664  35.9613

          k = 0.7504-0.2501 1.0006 (   218 PWs)   bands (ev):

    -0.4241   9.4402  10.8386  12.4441  28.1875  30.7697

          k = 0.6254-0.1251 0.8755 (   215 PWs)   bands (ev):

     3.0449   6.0618   8.8708  11.9306  28.5848  34.4312

          k = 0.5003 0.0000 0.7504 (   219 PWs)   bands (ev):

     1.8187   7.4911   7.8650  13.0861  29.5381  37.5263

          k =-0.2501-1.0006 0.0000 (   212 PWs)   bands (ev):

     4.3357   4.9773  10.1274  10.9834  26.9636  29.9906

          k =-0.5003-1.0006 0.0000 (   208 PWs)   bands (ev):

     5.5969   6.7086   6.7086   9.6380  29.5139  37.3456

     the Fermi energy is    10.1471 ev

!    total energy              =     -18.10665208 Ry
     Harris-Foulkes estimate   =     -18.10665208 Ry
     estimated scf accuracy    <          8.5E-10 Ry

     total all-electron energy =       -18.106652 Ry

     The total energy is the sum of the following terms:

     one-electron contribution =       4.48963760 Ry
     hartree contribution      =       0.41579432 Ry
     xc contribution           =      -3.41965744 Ry
     ewald contribution        =     -12.51710202 Ry
     one-center paw contrib.   =      -7.07508289 Ry
     smearing contrib. (-TS)   =      -0.00024164 Ry

     convergence has been achieved in   4 iterations

     Forces acting on atoms (cartesian axes, Ry/au):

     atom    1 type  1   force =     0.00000000    0.00000000    0.00000000

     Total force =     0.000000     Total SCF correction =     0.000000


     Computing stress (Cartesian axis) and pressure

          total   stress  (Ry/bohr**3)                   (kbar)     P=   -0.95
  -0.00000647  -0.00000000   0.00000000         -0.95     -0.00      0.00
  -0.00000000  -0.00000647  -0.00000000         -0.00     -0.95     -0.00
   0.00000000  -0.00000000  -0.00000647          0.00     -0.00     -0.95


     number of scf cycles    =   2
     number of bfgs steps    =   1

     enthalpy old            =     -18.1066507728 Ry
     enthalpy new            =     -18.1066520796 Ry

     CASE: enthalpy_new < enthalpy_old

     new trust radius        =       0.0003180527 bohr
     new conv_thr            =            1.0E-10 Ry

     new unit-cell volume =     50.28927 a.u.^3 (     7.45210 Ang^3 )
     density =      2.67632 g/cm^3

CELL_PARAMETERS (alat=  5.86400000)
  -0.499598519   0.000000000   0.499598519
  -0.000000000   0.499598519   0.499598519
  -0.499598519   0.499598519  -0.000000000

ATOMIC_POSITIONS (alat)
C        0.000000000   0.000000000   0.000000000



     Writing output data file relax.save/
     NEW-OLD atomic charge density approx. for the potential

     Check: negative/imaginary core charge=   -0.000026    0.000000
     extrapolated charge    3.99731, renormalised to    4.00000

     total cpu time spent up to now is        1.4 secs

     Self-consistent Calculation

     iteration #  1     ecut=    40.00 Ry     beta= 0.70
     Davidson diagonalization with overlap
     ethr =  1.00E-06,  avg # of iterations =  2.0

     Threshold (ethr) on eigenvalues was too large:
     Diagonalizing with lowered threshold

     Davidson diagonalization with overlap
     ethr =  1.76E-09,  avg # of iterations =  1.0

     total cpu time spent up to now is        1.5 secs

     total energy              =     -18.10665207 Ry
     Harris-Foulkes estimate   =     -18.10423348 Ry
     estimated scf accuracy    <       0.00000007 Ry

     iteration #  2     ecut=    40.00 Ry     beta= 0.70
     Davidson diagonalization with overlap
     ethr =  1.76E-09,  avg # of iterations =  2.0

     total cpu time spent up to now is        1.5 secs

     total energy              =     -18.10665217 Ry
     Harris-Foulkes estimate   =     -18.10665218 Ry
     estimated scf accuracy    <       0.00000002 Ry

     iteration #  3     ecut=    40.00 Ry     beta= 0.70
     Davidson diagonalization with overlap
     ethr =  5.98E-10,  avg # of iterations =  1.0

     total cpu time spent up to now is        1.6 secs

     total energy              =     -18.10665216 Ry
     Harris-Foulkes estimate   =     -18.10665217 Ry
     estimated scf accuracy    <          4.5E-09 Ry

     iteration #  4     ecut=    40.00 Ry     beta= 0.70
     Davidson diagonalization with overlap
     ethr =  1.11E-10,  avg # of iterations =  1.2

     total cpu time spent up to now is        1.6 secs

     total energy              =     -18.10665217 Ry
     Harris-Foulkes estimate   =     -18.10665217 Ry
     estimated scf accuracy    <          1.5E-10 Ry

     iteration #  5     ecut=    40.00 Ry     beta= 0.70
     Davidson diagonalization with overlap
     ethr =  3.63E-12,  avg # of iterations =  1.9

     total cpu time spent up to now is        1.7 secs

     End of self-consistent calculation

          k = 0.0000 0.0000 0.0000 (   181 PWs)   bands (ev):

    -8.3879  17.9285  17.9285  17.9285  39.8520  39.8520

          k =-0.1251 0.1251-0.1251 (   214 PWs)   bands (ev):

    -7.7737  16.1261  17.6310  17.6310  36.5784  40.2765

          k =-0.2502 0.2502-0.2502 (   211 PWs)   bands (ev):

    -5.9418  11.6075  16.9979  16.9979  34.6674  39.6384

          k =-0.3753 0.3753-0.3753 (   217 PWs)   bands (ev):

    -2.9340   6.2379  16.4557  16.4557  34.3289  38.1285

          k = 0.5004-0.5004 0.5004 (   228 PWs)   bands (ev):

     0.7382   1.6744  16.2521  16.2521  34.3735  37.3293

          k = 0.0000 0.2502 0.0000 (   214 PWs)   bands (ev):

    -7.5696  16.8383  16.8383  17.0458  34.9179  38.8100

          k =-0.1251 0.3753-0.1251 (   215 PWs)   bands (ev):

    -6.1458  13.4749  15.9266  16.7103  33.2726  35.6928

          k =-0.2502 0.5004-0.2502 (   213 PWs)   bands (ev):

    -3.5331   8.4305  15.4152  15.7449  32.6245  34.6875

          k = 0.6255-0.3753 0.6255 (   219 PWs)   bands (ev):

     0.1515   3.3644  14.7682  15.5107  32.1344  35.3426

          k = 0.5004-0.2502 0.5004 (   216 PWs)   bands (ev):

    -1.1735   4.9848  14.2267  16.1542  33.0822  35.3646

          k = 0.3753-0.1251 0.3753 (   213 PWs)   bands (ev):

    -4.5315  10.2087  14.3474  17.0569  34.8996  35.4053

          k = 0.2502 0.0000 0.2502 (   212 PWs)   bands (ev):

    -6.7542  14.6796  15.4281  17.7166  35.0554  38.5012

          k = 0.0000 0.5004 0.0000 (   218 PWs)   bands (ev):

    -5.1392  14.3800  14.6948  14.6948  30.1859  31.2713

          k =-0.1251 0.6255-0.1251 (   217 PWs)   bands (ev):

    -2.9468  10.8909  13.4250  13.9689  28.7451  30.5874

          k = 0.7506-0.2502 0.7506 (   216 PWs)   bands (ev):

     0.3460   6.3043  11.4826  14.0163  28.1705  33.9597

          k = 0.6255-0.1251 0.6255 (   217 PWs)   bands (ev):

     1.6221   4.8488  10.1302  14.8157  29.1638  37.4164

          k = 0.5004 0.0000 0.5004 (   218 PWs)   bands (ev):

    -1.9550   9.6486   9.7305  16.0586  31.6040  36.8316

          k = 0.0000 0.7506 0.0000 (   214 PWs)   bands (ev):

    -1.1957   9.7487  12.9725  12.9725  26.2122  27.3017

          k = 0.8757-0.1251 0.8757 (   215 PWs)   bands (ev):

     1.6353   7.1135  10.4945  12.7932  25.8215  28.8487

          k = 0.7506 0.0000 0.7506 (   220 PWs)   bands (ev):

     4.6615   5.1561   7.1209  13.4818  26.7951  33.7037

          k = 0.0000-1.0008 0.0000 (   222 PWs)   bands (ev):

     3.5182   4.5468  12.3415  12.3415  24.7197  26.3368

          k =-0.2502 0.5004 0.0000 (   217 PWs)   bands (ev):

    -4.3340  12.1225  12.8325  16.0570  32.5543  32.9166

          k = 0.6255-0.3753 0.8757 (   215 PWs)   bands (ev):

    -1.3723   7.5528  12.1157  14.8156  30.8275  34.8247

          k = 0.5004-0.2502 0.7506 (   212 PWs)   bands (ev):

     2.1098   3.2922  12.1636  14.0958  30.2827  35.9828

          k = 0.7506-0.2502 1.0008 (   218 PWs)   bands (ev):

    -0.4182   9.4528  10.8486  12.4551  28.2038  30.7860

          k = 0.6255-0.1251 0.8757 (   215 PWs)   bands (ev):

     3.0532   6.0704   8.8809  11.9413  28.6013  34.4506

          k = 0.5004 0.0000 0.7506 (   219 PWs)   bands (ev):

     1.8262   7.4988   7.8761  13.0979  29.5548  37.5477

          k =-0.2502-1.0008 0.0000 (   212 PWs)   bands (ev):

     4.3416   4.9896  10.1369  10.9937  26.9800  30.0064

          k =-0.5004-1.0008 0.0000 (   208 PWs)   bands (ev):

     5.6104   6.7158   6.7158   9.6467  29.5315  37.3666

     the Fermi energy is    10.1578 ev

!    total energy              =     -18.10665217 Ry
     Harris-Foulkes estimate   =     -18.10665217 Ry
     estimated scf accuracy    <          4.6E-14 Ry

     total all-electron energy =       -18.106652 Ry

     The total energy is the sum of the following terms:

     one-electron contribution =       4.49326637 Ry
     hartree contribution      =       0.41538328 Ry
     xc contribution           =      -3.42007111 Ry
     ewald contribution        =     -12.51990866 Ry
     one-center paw contrib.   =      -7.07508115 Ry
     smearing contrib. (-TS)   =      -0.00024089 Ry

     convergence has been achieved in   5 iterations

     Forces acting on atoms (cartesian axes, Ry/au):

     atom    1 type  1   force =     0.00000000    0.00000000    0.00000000

     Total force =     0.000000     Total SCF correction =     0.000000


     Computing stress (Cartesian axis) and pressure

          total   stress  (Ry/bohr**3)                   (kbar)     P=    0.14
   0.00000095   0.00000000  -0.00000000          0.14      0.00     -0.00
   0.00000000   0.00000095  -0.00000000          0.00      0.14     -0.00
   0.00000000  -0.00000000   0.00000095          0.00     -0.00      0.14


     bfgs converged in   3 scf cycles and   2 bfgs steps
     (criteria: energy <  1.0E-04 Ry, force <  1.0E-03Ry/Bohr, cell <  5.0E-01kbar)

     End of BFGS Geometry Optimization

     Final enthalpy =     -18.1066521650 Ry
Begin final coordinates
     new unit-cell volume =     50.28927 a.u.^3 (     7.45210 Ang^3 )
     density =      2.67632 g/cm^3

CELL_PARAMETERS (alat=  5.86400000)
  -0.499598519   0.000000000   0.499598519
  -0.000000000   0.499598519   0.499598519
  -0.499598519   0.499598519  -0.000000000

ATOMIC_POSITIONS (alat)
C        0.000000000   0.000000000   0.000000000
End final coordinates



     Writing output data file relax.save/

     A final scf calculation at the relaxed structure.
     The G-vectors are recalculated for the final unit cell
     Results may differ from those at the preceding step.
 
     Parallelization info
     --------------------
     sticks:   dense  smooth     PW     G-vecs:    dense   smooth      PW
     Min          59      49     17                  605      439      96
     Max          61      50     19                  606      440      97
     Sum         241     199     73                 2421     1759     387
 


     bravais-lattice index     =            2
     lattice parameter (alat)  =       5.8640  a.u.
     unit-cell volume          =      50.2893 (a.u.)^3
     number of atoms/cell      =            1
     number of atomic types    =            1
     number of electrons       =         4.00
     number of Kohn-Sham states=            6
     kinetic-energy cutoff     =      40.0000  Ry
     charge density cutoff     =     200.0000  Ry
     convergence threshold     =      1.0E-10
     mixing beta               =       0.7000
     number of iterations used =            8  plain     mixing
     Exchange-correlation      = SLA PW PBX PBC ( 1  4  3  4 0 0)

     celldm(1)=   5.864000  celldm(2)=   0.000000  celldm(3)=   0.000000
     celldm(4)=   0.000000  celldm(5)=   0.000000  celldm(6)=   0.000000

     crystal axes: (cart. coord. in units of alat)
               a(1) = (  -0.499599   0.000000   0.499599 )  
               a(2) = (  -0.000000   0.499599   0.499599 )  
               a(3) = (  -0.499599   0.499599  -0.000000 )  

     reciprocal axes: (cart. coord. in units 2 pi/alat)
               b(1) = ( -1.000804 -1.000804  1.000804 )  
               b(2) = (  1.000804  1.000804  1.000804 )  
               b(3) = ( -1.000804  1.000804 -1.000804 )  


     PseudoPot. # 1 for C  read from file:
     ./C.GGA-PBE-paw.UPF
     MD5 check sum: c97fbc28fe946507017b415a81afdaaf
     Pseudo is Projector augmented-wave + core cor, Zval =  4.0
     Generated using ATOMPAW code
     Shape of augmentation charge: SINC**2
     Using radial grid of 2342 points,  4 beta functions with: 
                l(1) =   0
                l(2) =   0
                l(3) =   1
                l(4) =   1
     Q(r) pseudized with 0 coefficients 


     atomic species   valence    mass     pseudopotential
        C              4.00    12.01070     C ( 1.00)

     48 Sym. Ops., with inversion, found



   Cartesian axes

     site n.     atom                  positions (alat units)
         1           C   tau(   1) = (   0.0000000   0.0000000   0.0000000  )

     number of k points=    29  Fermi-Dirac smearing, width (Ry)=  0.0020
                       cart. coord. in units 2pi/alat
        k(    1) = (   0.0000000   0.0000000   0.0000000), wk =   0.0039062
        k(    2) = (  -0.1251005   0.1251005  -0.1251005), wk =   0.0312500
        k(    3) = (  -0.2502009   0.2502009  -0.2502009), wk =   0.0312500
        k(    4) = (  -0.3753014   0.3753014  -0.3753014), wk =   0.0312500
        k(    5) = (   0.5004018  -0.5004018   0.5004018), wk =   0.0156250
        k(    6) = (   0.0000000   0.2502009   0.0000000), wk =   0.0234375
        k(    7) = (  -0.1251005   0.3753014  -0.1251005), wk =   0.0937500
        k(    8) = (  -0.2502009   0.5004018  -0.2502009), wk =   0.0937500
        k(    9) = (   0.6255023  -0.3753014   0.6255023), wk =   0.0937500
        k(   10) = (   0.5004018  -0.2502009   0.5004018), wk =   0.0937500
        k(   11) = (   0.3753014  -0.1251005   0.3753014), wk =   0.0937500
        k(   12) = (   0.2502009   0.0000000   0.2502009), wk =   0.0468750
        k(   13) = (   0.0000000   0.5004018   0.0000000), wk =   0.0234375
        k(   14) = (  -0.1251005   0.6255023  -0.1251005), wk =   0.0937500
        k(   15) = (   0.7506027  -0.2502009   0.7506027), wk =   0.0937500
        k(   16) = (   0.6255023  -0.1251005   0.6255023), wk =   0.0937500
        k(   17) = (   0.5004018   0.0000000   0.5004018), wk =   0.0468750
        k(   18) = (   0.0000000   0.7506027   0.0000000), wk =   0.0234375
        k(   19) = (   0.8757032  -0.1251005   0.8757032), wk =   0.0937500
        k(   20) = (   0.7506027   0.0000000   0.7506027), wk =   0.0468750
        k(   21) = (   0.0000000  -1.0008036   0.0000000), wk =   0.0117188
        k(   22) = (  -0.2502009   0.5004018   0.0000000), wk =   0.0937500
        k(   23) = (   0.6255023  -0.3753014   0.8757032), wk =   0.1875000
        k(   24) = (   0.5004018  -0.2502009   0.7506027), wk =   0.0937500
        k(   25) = (   0.7506027  -0.2502009   1.0008036), wk =   0.0937500
        k(   26) = (   0.6255023  -0.1251005   0.8757032), wk =   0.1875000
        k(   27) = (   0.5004018   0.0000000   0.7506027), wk =   0.0937500
        k(   28) = (  -0.2502009  -1.0008036   0.0000000), wk =   0.0468750
        k(   29) = (  -0.5004018  -1.0008036   0.0000000), wk =   0.0234375

     Dense  grid:     2421 G-vectors     FFT dimensions: (  20,  20,  20)

     Smooth grid:     1759 G-vectors     FFT dimensions: (  18,  18,  18)

     Estimated max dynamical RAM per process >       1.61 MB

     Estimated total dynamical RAM >       6.45 MB

     Check: negative/imaginary core charge=   -0.000026    0.000000

     Initial potential from superposition of free atoms

     starting charge    3.99995, renormalised to    4.00000
     Starting wfcs are    8 randomized atomic wfcs
     Checking if some PAW data can be deallocated... 

     total cpu time spent up to now is        1.9 secs

     Self-consistent Calculation

     iteration #  1     ecut=    40.00 Ry     beta= 0.70
     Davidson diagonalization with overlap
     ethr =  1.00E-06,  avg # of iterations =  8.6

     total cpu time spent up to now is        2.0 secs

     total energy              =     -18.10659208 Ry
     Harris-Foulkes estimate   =     -18.10676585 Ry
     estimated scf accuracy    <       0.00068017 Ry

     iteration #  2     ecut=    40.00 Ry     beta= 0.70
     Davidson diagonalization with overlap
     ethr =  1.70E-05,  avg # of iterations =  1.0

     total cpu time spent up to now is        2.0 secs

     total energy              =     -18.10664645 Ry
     Harris-Foulkes estimate   =     -18.10663585 Ry
     estimated scf accuracy    <       0.00003171 Ry

     iteration #  3     ecut=    40.00 Ry     beta= 0.70
     Davidson diagonalization with overlap
     ethr =  7.93E-07,  avg # of iterations =  1.3

     total cpu time spent up to now is        2.1 secs

     total energy              =     -18.10665016 Ry
     Harris-Foulkes estimate   =     -18.10664961 Ry
     estimated scf accuracy    <       0.00000126 Ry

     iteration #  4     ecut=    40.00 Ry     beta= 0.70
     Davidson diagonalization with overlap
     ethr =  3.14E-08,  avg # of iterations =  1.1

     total cpu time spent up to now is        2.1 secs

     total energy              =     -18.10665024 Ry
     Harris-Foulkes estimate   =     -18.10665024 Ry
     estimated scf accuracy    <          1.7E-09 Ry

     iteration #  5     ecut=    40.00 Ry     beta= 0.70
     Davidson diagonalization with overlap
     ethr =  4.32E-11,  avg # of iterations =  2.5

     total cpu time spent up to now is        2.2 secs

     total energy              =     -18.10665025 Ry
     Harris-Foulkes estimate   =     -18.10665025 Ry
     estimated scf accuracy    <          1.1E-10 Ry

     iteration #  6     ecut=    40.00 Ry     beta= 0.70
     Davidson diagonalization with overlap
     ethr =  2.76E-12,  avg # of iterations =  1.4

     total cpu time spent up to now is        2.2 secs

     End of self-consistent calculation

          k = 0.0000 0.0000 0.0000 (   181 PWs)   bands (ev):

    -8.3879  17.9285  17.9285  17.9285  39.8520  39.8520

          k =-0.1251 0.1251-0.1251 (   208 PWs)   bands (ev):

    -7.7737  16.1261  17.6313  17.6313  36.5786  40.2765

          k =-0.2502 0.2502-0.2502 (   211 PWs)   bands (ev):

    -5.9418  11.6076  16.9979  16.9979  34.6674  39.6384

          k =-0.3753 0.3753-0.3753 (   217 PWs)   bands (ev):

    -2.9340   6.2379  16.4557  16.4557  34.3289  38.1285

          k = 0.5004-0.5004 0.5004 (   228 PWs)   bands (ev):

     0.7382   1.6744  16.2521  16.2521  34.3735  37.3293

          k = 0.0000 0.2502 0.0000 (   214 PWs)   bands (ev):

    -7.5696  16.8383  16.8383  17.0458  34.9179  38.8100

          k =-0.1251 0.3753-0.1251 (   215 PWs)   bands (ev):

    -6.1458  13.4749  15.9266  16.7104  33.2726  35.6928

          k =-0.2502 0.5004-0.2502 (   213 PWs)   bands (ev):

    -3.5331   8.4305  15.4152  15.7449  32.6245  34.6875

          k = 0.6255-0.3753 0.6255 (   219 PWs)   bands (ev):

     0.1515   3.3644  14.7682  15.5107  32.1344  35.3426

          k = 0.5004-0.2502 0.5004 (   216 PWs)   bands (ev):

    -1.1735   4.9848  14.2267  16.1542  33.0822  35.3646

          k = 0.3753-0.1251 0.3753 (   212 PWs)   bands (ev):

    -4.5315  10.2087  14.3475  17.0570  34.8997  35.4053

          k = 0.2502 0.0000 0.2502 (   212 PWs)   bands (ev):

    -6.7542  14.6796  15.4281  17.7166  35.0554  38.5012

          k = 0.0000 0.5004 0.0000 (   218 PWs)   bands (ev):

    -5.1391  14.3801  14.6948  14.6948  30.1858  31.2713

          k =-0.1251 0.6255-0.1251 (   217 PWs)   bands (ev):

    -2.9468  10.8909  13.4251  13.9689  28.7451  30.5874

          k = 0.7506-0.2502 0.7506 (   216 PWs)   bands (ev):

     0.3460   6.3043  11.4826  14.0163  28.1705  33.9597

          k = 0.6255-0.1251 0.6255 (   217 PWs)   bands (ev):

     1.6221   4.8488  10.1302  14.8157  29.1638  37.4165

          k = 0.5004 0.0000 0.5004 (   218 PWs)   bands (ev):

    -1.9550   9.6487   9.7305  16.0586  31.6040  36.8316

          k = 0.0000 0.7506 0.0000 (   214 PWs)   bands (ev):

    -1.1957   9.7487  12.9725  12.9725  26.2122  27.3017

          k = 0.8757-0.1251 0.8757 (   214 PWs)   bands (ev):

     1.6353   7.1135  10.4945  12.7932  25.8215  28.8489

          k = 0.7506 0.0000 0.7506 (   220 PWs)   bands (ev):

     4.6615   5.1561   7.1209  13.4818  26.7951  33.7037

          k = 0.0000-1.0008 0.0000 (   222 PWs)   bands (ev):

     3.5182   4.5468  12.3415  12.3415  24.7197  26.3368

          k =-0.2502 0.5004 0.0000 (   213 PWs)   bands (ev):

    -4.3340  12.1225  12.8326  16.0572  32.5543  32.9167

          k = 0.6255-0.3753 0.8757 (   214 PWs)   bands (ev):

    -1.3722   7.5528  12.1157  14.8156  30.8275  34.8248

          k = 0.5004-0.2502 0.7506 (   212 PWs)   bands (ev):

     2.1098   3.2922  12.1636  14.0958  30.2827  35.9828

          k = 0.7506-0.2502 1.0008 (   218 PWs)   bands (ev):

    -0.4182   9.4528  10.8486  12.4551  28.2038  30.7860

          k = 0.6255-0.1251 0.8757 (   215 PWs)   bands (ev):

     3.0532   6.0704   8.8809  11.9413  28.6013  34.4506

          k = 0.5004 0.0000 0.7506 (   214 PWs)   bands (ev):

     1.8262   7.4988   7.8761  13.0982  29.5549  37.5478

          k =-0.2502-1.0008 0.0000 (   212 PWs)   bands (ev):

     4.3416   4.9896  10.1369  10.9937  26.9800  30.0064

          k =-0.5004-1.0008 0.0000 (   208 PWs)   bands (ev):

     5.6104   6.7158   6.7158   9.6467  29.5315  37.3667

     the Fermi energy is    10.1578 ev

!    total energy              =     -18.10665025 Ry
     Harris-Foulkes estimate   =     -18.10665025 Ry
     estimated scf accuracy    <          1.2E-11 Ry

     total all-electron energy =       -18.106650 Ry

     The total energy is the sum of the following terms:

     one-electron contribution =       4.49326654 Ry
     hartree contribution      =       0.41538260 Ry
     xc contribution           =      -3.42007051 Ry
     ewald contribution        =     -12.51990866 Ry
     one-center paw contrib.   =      -7.07507936 Ry
     smearing contrib. (-TS)   =      -0.00024085 Ry

     convergence has been achieved in   6 iterations

     Forces acting on atoms (cartesian axes, Ry/au):

     atom    1 type  1   force =     0.00000000    0.00000000    0.00000000

     Total force =     0.000000     Total SCF correction =     0.000000


     Computing stress (Cartesian axis) and pressure

          total   stress  (Ry/bohr**3)                   (kbar)     P=    0.07
   0.00000050  -0.00000000  -0.00000000          0.07     -0.00     -0.00
   0.00000000   0.00000050   0.00000000          0.00      0.07      0.00
  -0.00000000   0.00000000   0.00000050         -0.00      0.00      0.07


     Writing output data file relax.save/
 
     init_run     :      0.27s CPU      0.29s WALL (       2 calls)
     electrons    :      0.97s CPU      1.09s WALL (       4 calls)
     update_pot   :      0.11s CPU      0.11s WALL (       2 calls)
     forces       :      0.06s CPU      0.06s WALL (       4 calls)
     stress       :      0.13s CPU      0.13s WALL (       4 calls)

     Called by init_run:
     wfcinit      :      0.02s CPU      0.02s WALL (       2 calls)
     potinit      :      0.05s CPU      0.06s WALL (       2 calls)
     hinit0       :      0.20s CPU      0.20s WALL (       2 calls)

     Called by electrons:
     c_bands      :      0.48s CPU      0.57s WALL (      22 calls)
     sum_band     :      0.08s CPU      0.10s WALL (      22 calls)
     v_of_rho     :      0.01s CPU      0.02s WALL (      23 calls)
     newd         :      0.01s CPU      0.01s WALL (      23 calls)
     PAW_pot      :      0.51s CPU      0.51s WALL (      25 calls)
     mix_rho      :      0.00s CPU      0.00s WALL (      22 calls)

     Called by c_bands:
     init_us_2    :      0.01s CPU      0.01s WALL (    1624 calls)
     cegterg      :      0.46s CPU      0.54s WALL (     638 calls)

     Called by sum_band:
     sum_band:bec :      0.00s CPU      0.00s WALL (     696 calls)
     addusdens    :      0.00s CPU      0.00s WALL (      22 calls)

     Called by *egterg:
     h_psi        :      0.33s CPU      0.39s WALL (    1939 calls)
     s_psi        :      0.01s CPU      0.01s WALL (    1939 calls)
     g_psi        :      0.00s CPU      0.00s WALL (    1243 calls)
     cdiaghg      :      0.09s CPU      0.10s WALL (    1736 calls)

     Called by h_psi:
     h_psi:pot    :      0.33s CPU      0.39s WALL (    1939 calls)
     h_psi:calbec :      0.01s CPU      0.02s WALL (    1939 calls)
     vloc_psi     :      0.30s CPU      0.35s WALL (    1939 calls)
     add_vuspsi   :      0.01s CPU      0.01s WALL (    1939 calls)

     General routines
     calbec       :      0.02s CPU      0.02s WALL (    3215 calls)
     fft          :      0.01s CPU      0.01s WALL (     400 calls)
     ffts         :      0.00s CPU      0.00s WALL (      45 calls)
     fftw         :      0.32s CPU      0.38s WALL (   23488 calls)
     interpolate  :      0.00s CPU      0.00s WALL (      23 calls)
 
     Parallel routines
     fft_scatt_xy :      0.05s CPU      0.06s WALL (   23933 calls)
     fft_scatt_yz :      0.13s CPU      0.15s WALL (   23933 calls)
 
     PWSCF        :     2.08s CPU         2.25s WALL

 
   This run was terminated on:  17:30:42  31Jul2019            

=------------------------------------------------------------------------------=
   JOB DONE.
=------------------------------------------------------------------------------=
