{
    "directories":
        {
            "elem_template_dir": "/home/szymansk/Elem_Templates",
            "cmpd_template_dir": "/home/szymansk/Optimization_Sets/In/Input"
        },
    "compounds": [
        {
            "formula": "InN",
            "lattice_type": "RS",
            "lattice_constant": 4.708,
            "phonon_frequency": [0.0,0.0,0.0,7.24,7.24,7.24]
        },
        {
            "formula": "InP",
            "lattice_type": "ZB",
            "eos": [26.46363, 59.80775, 4.597],
            "band_gap": 0.850
        },
        {
            "formula": "InLiGe",
            "lattice_type": "HH",
            "lattice_constant": 6.398
        }
    ]
}
