{
    "directories":
        {
            "elem_template_dir": "/home/szymansk/Elem_Templates",
            "cmpd_template_dir": "/home/szymansk/Optimization_Sets/I/Input"
        },
    "compounds": [
        {
            "formula": "LiI",
            "lattice_type": "RS",
            "lattice_constant": 6.038,
            "phonon_frequency": [0.0,0.0,0.0,3.40,3.40,3.40]
        },
        {
            "formula": "NaI",
            "lattice_type": "ZB",
            "eos": [46.16686, 10.66563, 4.122]
        },
        {
            "formula": "CuI",
            "lattice_type": "WZ",
            "lattice_constant": [4.30,7.181],
            "band_gap": 2.000
        },
        {
            "formula": "CsPbI3",
            "lattice_type": "per",
            "lattice_constant": 6.383
        }
    ]
}
