===== VARIABLES =====
EXE_PATH = /scr/szymansk/2019-3/qe-bin/bin/pw.x
tpp = 4
Parallel keywords = -nimage 1
MPIRUN_EXE = orterun
PATH = /scr/szymansk/2019-3/mmshare-v4.7/lib/Linux-x86_64/openmpi/bin:/scr/szymansk/2019-3/internal/bin:/scr/szymansk/2019-3/mmshare-v4.7/bin/Linux-x86_64:/scr/szymansk/gaopaw/Examples/P/workdir_pp.2:.:/scr/szymansk/gaopaw/Examples/P:/scr/szymansk/gaopaw/scripts:/home/szymansk/bin:/scr/szymansk/dakota/bin:/scr/szymansk/atompaw-4.1.0.5/src/:/usr/lib64/qt-3.3/bin:/usr/local/bin:/usr/local/sbin:/usr/bin:/usr/sbin:/bin:/sbin
LD_LIBRARY_PATH = /scr/szymansk/2019-3/mmshare-v4.7/lib/Linux-x86_64/openmpi/lib:/scr/szymansk/2019-3/internal/lib/ssl:/scr/szymansk/2019-3/internal/lib:/scr/szymansk/2019-3/mmshare-v4.7/lib/Linux-x86_64:/scr/szymansk/2019-3/internal/lib/python3.6/site-packages:/scr/szymansk/dakota/bin:/software/lib/Linux-x86_64/ifort_2017.1.132/mkl/lib/intel64
===== END VARIABLES =====
Invoking: exe_cmd () 
{ 
    "$MPIRUN_EXE" -np $tpp "$EXE_PATH" -in $input_file "${P_KEYWORDS[@]}"
}

     Program PWSCF v.6.3MaX starts on 30Jul2019 at 16:54:36 

     This program is part of the open-source Quantum ESPRESSO suite
     for quantum simulation of materials; please cite
         "P. Giannozzi et al., J. Phys.:Condens. Matter 21 395502 (2009);
         "P. Giannozzi et al., J. Phys.:Condens. Matter 29 465901 (2017);
          URL http://www.quantum-espresso.org", 
     in publications or presentations arising from this work. More details at
     http://www.quantum-espresso.org/quote

     Parallel version (MPI), running on     4 processors

     MPI processes distributed on     1 nodes
     R & G space division:  proc/nbgrp/npool/nimage =       4
     Reading input from P.ortho.relax.in

     Current dimensions of program PWSCF are:
     Max number of different atomic species (ntypx) = 10
     Max number of k-points (npk) =  40000
     Max angular momentum in pseudopotentials (lmaxx) =  3
               file P.GGA-PBE-paw.UPF: wavefunction(s)  Xn Xn Xn renormalized

     Subspace diagonalization in iterative solution of the eigenvalue problem:
     a serial algorithm will be used

 
     Parallelization info
     --------------------
     sticks:   dense  smooth     PW     G-vecs:    dense   smooth      PW
     Min         247     198     69                 6161     4414     891
     Max         248     199     70                 6162     4416     893
     Sum         991     793    277                24647    17661    3567
 


     bravais-lattice index     =           -9
     lattice parameter (alat)  =       6.2660  a.u.
     unit-cell volume          =     516.6094 (a.u.)^3
     number of atoms/cell      =            4
     number of atomic types    =            1
     number of electrons       =        20.00
     number of Kohn-Sham states=           14
     kinetic-energy cutoff     =      40.0000  Ry
     charge density cutoff     =     200.0000  Ry
     convergence threshold     =      1.0E-08
     mixing beta               =       0.7000
     number of iterations used =            8  plain     mixing
     Exchange-correlation      = SLA PW PBX PBC ( 1  4  3  4 0 0)
     nstep                     =           50


     celldm(1)=   6.266000  celldm(2)=   3.172000  celldm(3)=   1.324000
     celldm(4)=   0.000000  celldm(5)=   0.000000  celldm(6)=   0.000000

     crystal axes: (cart. coord. in units of alat)
               a(1) = (   0.500000  -1.586000   0.000000 )  
               a(2) = (   0.500000   1.586000   0.000000 )  
               a(3) = (   0.000000   0.000000   1.324000 )  

     reciprocal axes: (cart. coord. in units 2 pi/alat)
               b(1) = (  1.000000 -0.315259  0.000000 )  
               b(2) = (  1.000000  0.315259  0.000000 )  
               b(3) = (  0.000000  0.000000  0.755287 )  


     PseudoPot. # 1 for P  read from file:
     ./P.GGA-PBE-paw.UPF
     MD5 check sum: 5a01bcffb40c55323f1b1b9fb98a612d
     Pseudo is Projector augmented-wave + core cor, Zval =  5.0
     Generated using ATOMPAW code
     Shape of augmentation charge: SINC**2
     Using radial grid of 2342 points,  4 beta functions with: 
                l(1) =   0
                l(2) =   0
                l(3) =   1
                l(4) =   1
     Q(r) pseudized with 0 coefficients 


     atomic species   valence    mass     pseudopotential
        P              5.00    30.97376     P ( 1.00)

      8 Sym. Ops., with inversion, found ( 4 have fractional translation)



   Cartesian axes

     site n.     atom                  positions (alat units)
         1           P   tau(   1) = (   0.5000000   0.3108681   0.7811570  )
         2           P   tau(   2) = (   0.5000000   1.2751319   0.1191570  )
         3           P   tau(   3) = (   0.5000000  -1.2751319   1.2048430  )
         4           P   tau(   4) = (   0.5000000  -0.3108681   0.5428430  )

     number of k points=    65  Fermi-Dirac smearing, width (Ry)=  0.0020
                       cart. coord. in units 2pi/alat
        k(    1) = (   0.0000000   0.0000000   0.0000000), wk =   0.0069444
        k(    2) = (   0.0000000   0.0000000   0.0944109), wk =   0.0138889
        k(    3) = (   0.0000000   0.0000000   0.1888218), wk =   0.0138889
        k(    4) = (   0.0000000   0.0000000   0.2832326), wk =   0.0138889
        k(    5) = (   0.0000000   0.0000000  -0.3776435), wk =   0.0069444
        k(    6) = (   0.1666667   0.0525431   0.0000000), wk =   0.0277778
        k(    7) = (   0.1666667   0.0525431   0.0944109), wk =   0.0555556
        k(    8) = (   0.1666667   0.0525431   0.1888218), wk =   0.0555556
        k(    9) = (   0.1666667   0.0525431   0.2832326), wk =   0.0555556
        k(   10) = (   0.1666667   0.0525431  -0.3776435), wk =   0.0277778
        k(   11) = (   0.3333333   0.1050862   0.0000000), wk =   0.0277778
        k(   12) = (   0.3333333   0.1050862   0.0944109), wk =   0.0555556
        k(   13) = (   0.3333333   0.1050862   0.1888218), wk =   0.0555556
        k(   14) = (   0.3333333   0.1050862   0.2832326), wk =   0.0555556
        k(   15) = (   0.3333333   0.1050862  -0.3776435), wk =   0.0277778
        k(   16) = (  -0.5000000  -0.1576293   0.0000000), wk =   0.0138889
        k(   17) = (  -0.5000000  -0.1576293   0.0944109), wk =   0.0277778
        k(   18) = (  -0.5000000  -0.1576293   0.1888218), wk =   0.0277778
        k(   19) = (  -0.5000000  -0.1576293   0.2832326), wk =   0.0277778
        k(   20) = (  -0.5000000  -0.1576293  -0.3776435), wk =   0.0138889
        k(   21) = (   0.3333333   0.0000000   0.0000000), wk =   0.0138889
        k(   22) = (   0.3333333   0.0000000   0.0944109), wk =   0.0277778
        k(   23) = (   0.3333333   0.0000000   0.1888218), wk =   0.0277778
        k(   24) = (   0.3333333   0.0000000   0.2832326), wk =   0.0277778
        k(   25) = (   0.3333333   0.0000000  -0.3776435), wk =   0.0138889
        k(   26) = (   0.5000000   0.0525431   0.0000000), wk =   0.0277778
        k(   27) = (   0.5000000   0.0525431   0.0944109), wk =   0.0555556
        k(   28) = (   0.5000000   0.0525431   0.1888218), wk =   0.0555556
        k(   29) = (   0.5000000   0.0525431   0.2832326), wk =   0.0555556
        k(   30) = (   0.5000000   0.0525431  -0.3776435), wk =   0.0277778
        k(   31) = (  -0.3333333  -0.2101723   0.0000000), wk =   0.0277778
        k(   32) = (  -0.3333333  -0.2101723   0.0944109), wk =   0.0555556
        k(   33) = (  -0.3333333  -0.2101723   0.1888218), wk =   0.0555556
        k(   34) = (  -0.3333333  -0.2101723   0.2832326), wk =   0.0555556
        k(   35) = (  -0.3333333  -0.2101723  -0.3776435), wk =   0.0277778
        k(   36) = (  -0.1666667  -0.1576293   0.0000000), wk =   0.0277778
        k(   37) = (  -0.1666667  -0.1576293   0.0944109), wk =   0.0555556
        k(   38) = (  -0.1666667  -0.1576293   0.1888218), wk =   0.0555556
        k(   39) = (  -0.1666667  -0.1576293   0.2832326), wk =   0.0555556
        k(   40) = (  -0.1666667  -0.1576293  -0.3776435), wk =   0.0277778
        k(   41) = (   0.0000000  -0.1050862   0.0000000), wk =   0.0138889
        k(   42) = (   0.0000000  -0.1050862   0.0944109), wk =   0.0277778
        k(   43) = (   0.0000000  -0.1050862   0.1888218), wk =   0.0277778
        k(   44) = (   0.0000000  -0.1050862   0.2832326), wk =   0.0277778
        k(   45) = (   0.0000000  -0.1050862  -0.3776435), wk =   0.0138889
        k(   46) = (   0.6666667   0.0000000   0.0000000), wk =   0.0138889
        k(   47) = (   0.6666667   0.0000000   0.0944109), wk =   0.0277778
        k(   48) = (   0.6666667   0.0000000   0.1888218), wk =   0.0277778
        k(   49) = (   0.6666667   0.0000000   0.2832326), wk =   0.0277778
        k(   50) = (   0.6666667   0.0000000  -0.3776435), wk =   0.0138889
        k(   51) = (  -0.1666667  -0.2627154   0.0000000), wk =   0.0277778
        k(   52) = (  -0.1666667  -0.2627154   0.0944109), wk =   0.0555556
        k(   53) = (  -0.1666667  -0.2627154   0.1888218), wk =   0.0555556
        k(   54) = (  -0.1666667  -0.2627154   0.2832326), wk =   0.0555556
        k(   55) = (  -0.1666667  -0.2627154  -0.3776435), wk =   0.0277778
        k(   56) = (  -0.0000000  -0.2101723   0.0000000), wk =   0.0138889
        k(   57) = (  -0.0000000  -0.2101723   0.0944109), wk =   0.0277778
        k(   58) = (  -0.0000000  -0.2101723   0.1888218), wk =   0.0277778
        k(   59) = (  -0.0000000  -0.2101723   0.2832326), wk =   0.0277778
        k(   60) = (  -0.0000000  -0.2101723  -0.3776435), wk =   0.0138889
        k(   61) = (  -1.0000000   0.0000000   0.0000000), wk =   0.0069444
        k(   62) = (  -1.0000000   0.0000000   0.0944109), wk =   0.0138889
        k(   63) = (  -1.0000000   0.0000000   0.1888218), wk =   0.0138889
        k(   64) = (  -1.0000000   0.0000000   0.2832326), wk =   0.0138889
        k(   65) = (  -1.0000000   0.0000000  -0.3776435), wk =   0.0069444

     Dense  grid:    24647 G-vectors     FFT dimensions: (  48,  48,  40)

     Smooth grid:    17661 G-vectors     FFT dimensions: (  45,  45,  36)

     Estimated max dynamical RAM per process >      17.85 MB

     Estimated total dynamical RAM >      71.40 MB

     Check: negative/imaginary core charge=   -0.000009    0.000000

     Initial potential from superposition of free atoms
     Check: negative starting charge=   -0.024703

     starting charge   19.99942, renormalised to   20.00000

     negative rho (up, down):  2.470E-02 0.000E+00
     Starting wfcs are   32 randomized atomic wfcs
     Checking if some PAW data can be deallocated... 

     total cpu time spent up to now is        1.7 secs

     Self-consistent Calculation

     iteration #  1     ecut=    40.00 Ry     beta= 0.70
     Davidson diagonalization with overlap
     ethr =  1.00E-02,  avg # of iterations =  3.1

     Threshold (ethr) on eigenvalues was too large:
     Diagonalizing with lowered threshold

     Davidson diagonalization with overlap
     ethr =  3.27E-04,  avg # of iterations =  2.2

     negative rho (up, down):  3.348E-02 0.000E+00

     total cpu time spent up to now is        4.7 secs

     total energy              =    -222.12738039 Ry
     Harris-Foulkes estimate   =    -222.14462034 Ry
     estimated scf accuracy    <       0.06524385 Ry

     iteration #  2     ecut=    40.00 Ry     beta= 0.70
     Davidson diagonalization with overlap
     ethr =  3.26E-04,  avg # of iterations =  1.0

     negative rho (up, down):  3.653E-02 0.000E+00

     total cpu time spent up to now is        6.0 secs

     total energy              =    -222.12984583 Ry
     Harris-Foulkes estimate   =    -222.13086263 Ry
     estimated scf accuracy    <       0.00381635 Ry

     iteration #  3     ecut=    40.00 Ry     beta= 0.70
     Davidson diagonalization with overlap
     ethr =  1.91E-05,  avg # of iterations =  3.8

     negative rho (up, down):  3.678E-02 0.000E+00

     total cpu time spent up to now is        7.7 secs

     total energy              =    -222.13007595 Ry
     Harris-Foulkes estimate   =    -222.13045476 Ry
     estimated scf accuracy    <       0.00062758 Ry

     iteration #  4     ecut=    40.00 Ry     beta= 0.70
     Davidson diagonalization with overlap
     ethr =  3.14E-06,  avg # of iterations =  2.6

     negative rho (up, down):  3.685E-02 0.000E+00

     total cpu time spent up to now is        9.4 secs

     total energy              =    -222.13025792 Ry
     Harris-Foulkes estimate   =    -222.13032509 Ry
     estimated scf accuracy    <       0.00013800 Ry

     iteration #  5     ecut=    40.00 Ry     beta= 0.70
     Davidson diagonalization with overlap
     ethr =  6.90E-07,  avg # of iterations =  2.0

     negative rho (up, down):  3.685E-02 0.000E+00

     total cpu time spent up to now is       10.9 secs

     total energy              =    -222.13028735 Ry
     Harris-Foulkes estimate   =    -222.13028755 Ry
     estimated scf accuracy    <       0.00000087 Ry

     iteration #  6     ecut=    40.00 Ry     beta= 0.70
     Davidson diagonalization with overlap
     ethr =  4.36E-09,  avg # of iterations =  3.0

     negative rho (up, down):  3.684E-02 0.000E+00

     total cpu time spent up to now is       12.6 secs

     total energy              =    -222.13028790 Ry
     Harris-Foulkes estimate   =    -222.13028791 Ry
     estimated scf accuracy    <       0.00000007 Ry

     iteration #  7     ecut=    40.00 Ry     beta= 0.70
     Davidson diagonalization with overlap
     ethr =  3.33E-10,  avg # of iterations =  2.0

     negative rho (up, down):  3.684E-02 0.000E+00

     total cpu time spent up to now is       14.1 secs

     End of self-consistent calculation

          k = 0.0000 0.0000 0.0000 (  2215 PWs)   bands (ev):

    -8.5804  -5.5617  -2.1529   0.5373   2.6633   3.0472   3.0556   4.6078
     4.8546   6.3744   8.2794   8.2996   9.1821  10.5096

          k = 0.0000 0.0000 0.0944 (  2239 PWs)   bands (ev):

    -8.4927  -5.7038  -2.1689   0.4718   2.6082   3.0128   3.1111   4.5689
     5.4799   5.7811   8.2440   9.0695   9.0841  10.3594

          k = 0.0000 0.0000 0.1888 (  2201 PWs)   bands (ev):

    -8.2341  -6.1072  -2.0917   0.1194   2.2368   3.2952   3.8791   4.4404
     4.7831   6.4220   8.5111   8.7560  10.1134  10.2441

          k = 0.0000 0.0000 0.2832 (  2204 PWs)   bands (ev):

    -7.8198  -6.6769  -1.7832  -0.5501   2.4314   3.5735   3.7935   4.2093
     5.0014   6.7209   8.6163   8.8023  10.0583  10.8718

          k = 0.0000 0.0000-0.3776 (  2208 PWs)   bands (ev):

    -7.2812  -7.2812  -1.2434  -1.2434   2.9986   2.9986   3.8999   3.8999
     6.0457   6.0457   8.8317   8.8317  10.3135  10.3135

          k = 0.1667 0.0525 0.0000 (  2220 PWs)   bands (ev):

    -8.2391  -5.2504  -2.4277   0.8469   1.7796   1.9341   2.9193   4.1469
     4.9652   6.5549   8.5993   9.2903  10.4212  11.1015

          k = 0.1667 0.0525 0.0944 (  2218 PWs)   bands (ev):

    -8.1526  -5.3962  -2.3813   0.6850   1.7102   1.8834   3.3900   3.7380
     5.4016   6.0328   8.9707   9.4459  10.4039  11.0595

          k = 0.1667 0.0525 0.1888 (  2210 PWs)   bands (ev):

    -7.8978  -5.8025  -2.1929   0.1783   1.6293   2.0967   3.1679   4.3881
     5.1205   5.7496   9.5193   9.8286  10.4156  10.9574

          k = 0.1667 0.0525 0.2832 (  2206 PWs)   bands (ev):

    -7.4901  -6.3664  -1.8075  -0.5325   1.7969   2.3577   2.9062   4.1298
     5.3340   5.8305   9.4701  10.1899  10.9222  11.1547

          k = 0.1667 0.0525-0.3776 (  2206 PWs)   bands (ev):

    -6.9607  -6.9607  -1.2346  -1.2346   2.1224   2.1224   3.3543   3.3543
     5.7629   5.7629   9.7401   9.7401  11.3259  11.3259

          k = 0.3333 0.1051 0.0000 (  2218 PWs)   bands (ev):

    -7.2352  -4.3144  -3.7611  -0.6170   1.3698   1.6355   3.5408   4.3232
     4.8986   5.9901   8.0552   9.1907   9.5349   9.9241

          k = 0.3333 0.1051 0.0944 (  2212 PWs)   bands (ev):

    -7.1542  -4.5540  -3.5278  -0.7128   1.0980   1.7203   3.7440   4.0313
     4.7498   5.9645   8.5884   9.0415   9.5456   9.9431

          k = 0.3333 0.1051 0.1888 (  2208 PWs)   bands (ev):

    -6.9166  -4.9992  -3.0997  -1.0042   0.8056   1.7101   3.3139   4.1438
     4.5657   5.8516   8.7799   9.4957  10.0912  10.7945

          k = 0.3333 0.1051 0.2832 (  2200 PWs)   bands (ev):

    -6.5400  -5.5216  -2.5877  -1.4668   0.7773   1.4393   3.1356   3.8659
     4.6858   5.5288   9.4343  10.0154  10.9520  11.1317

          k = 0.3333 0.1051-0.3776 (  2200 PWs)   bands (ev):

    -6.0576  -6.0576  -2.0239  -2.0239   1.0312   1.0312   3.4144   3.4144
     5.0585   5.0585  10.4328  10.4328  10.7394  10.7394

          k =-0.5000-0.1576 0.0000 (  2200 PWs)   bands (ev):

    -5.6512  -5.6512  -2.7563  -2.7563   1.9378   1.9378   4.1613   4.1613
     4.9069   4.9069   8.4554   8.4554   9.1511   9.1511

          k =-0.5000-0.1576 0.0944 (  2198 PWs)   bands (ev):

    -5.5959  -5.5959  -2.7975  -2.7975   1.7991   1.7991   3.7988   3.7988
     5.2081   5.2081   8.3929   8.3929   9.8559   9.8559

          k =-0.5000-0.1576 0.1888 (  2206 PWs)   bands (ev):

    -5.4483  -5.4483  -2.9240  -2.9240   1.5894   1.5894   3.1751   3.1751
     5.5108   5.5108   8.9978   8.9978  10.1707  10.1707

          k =-0.5000-0.1576 0.2832 (  2212 PWs)   bands (ev):

    -5.2730  -5.2730  -3.0971  -3.0971   1.5831   1.5831   2.5276   2.5276
     5.6866   5.6866   9.3720   9.3720  10.6342  10.6342

          k =-0.5000-0.1576-0.3776 (  2216 PWs)   bands (ev):

    -5.1884  -5.1884  -3.1865  -3.1865   1.7399   1.7399   2.1322   2.1322
     5.7571   5.7571   9.2468   9.2468  11.5168  11.5168

          k = 0.3333 0.0000 0.0000 (  2212 PWs)   bands (ev):

    -7.2744  -4.2056  -3.7370  -0.7011   1.3634   1.5069   3.6545   4.4780
     4.7108   6.0737   8.3078   8.9239   9.3900   9.5923

          k = 0.3333 0.0000 0.0944 (  2218 PWs)   bands (ev):

    -7.1925  -4.4878  -3.4703  -0.7788   1.1729   1.5484   3.9230   4.0758
     4.5642   5.9014   8.8850   8.9154   9.3820   9.6243

          k = 0.3333 0.0000 0.1888 (  2210 PWs)   bands (ev):

    -6.9520  -4.9718  -3.0269  -1.0270   0.9353   1.6293   3.3688   4.0927
     4.3688   5.6031   8.6376  10.0419  10.1038  10.4236

          k = 0.3333 0.0000 0.2832 (  2194 PWs)   bands (ev):

    -6.5694  -5.5222  -2.5174  -1.4451   0.9423   1.5457   3.0075   3.7206
     4.4115   5.2046   9.3721  10.5642  11.0733  11.2266

          k = 0.3333 0.0000-0.3776 (  2198 PWs)   bands (ev):

    -6.0763  -6.0763  -1.9704  -1.9704   1.2068   1.2068   3.2327   3.2327
     4.7309   4.7309  10.5823  10.5823  11.0802  11.0802

          k = 0.5000 0.0525 0.0000 (  2200 PWs)   bands (ev):

    -5.7134  -5.5835  -2.9339  -2.5760   1.8664   1.9975   4.1245   4.2280
     4.5858   5.2312   8.3711   8.4307   9.1860   9.3247

          k = 0.5000 0.0525 0.0944 (  2200 PWs)   bands (ev):

    -5.6554  -5.5313  -2.9556  -2.6393   1.7124   1.9010   3.7468   3.7665
     4.9653   5.6041   8.1488   8.4785   9.8033   9.9413

          k = 0.5000 0.0525 0.1888 (  2206 PWs)   bands (ev):

    -5.4986  -5.3945  -3.0303  -2.8203   1.4499   1.7739   2.9976   3.2989
     5.2012   5.9043   8.6191   9.1727   9.8678  10.5902

          k = 0.5000 0.0525 0.2832 (  2212 PWs)   bands (ev):

    -5.3042  -5.2406  -3.1433  -3.0514   1.3860   1.8026   2.3265   2.7760
     5.3576   5.8600   9.3253   9.6681  10.5113  10.8694

          k = 0.5000 0.0525-0.3776 (  2210 PWs)   bands (ev):

    -5.1886  -5.1886  -3.1855  -3.1855   1.6181   1.6181   2.3009   2.3009
     5.6167   5.6167   9.5516   9.5516  11.5104  11.5104

          k =-0.3333-0.2102 0.0000 (  2202 PWs)   bands (ev):

    -7.1500  -4.5307  -3.8073  -0.4382   1.3709   1.9381   3.2312   4.0329
     5.3424   5.8779   7.9664   9.4885   9.5000  10.1795

          k =-0.3333-0.2102 0.0944 (  2193 PWs)   bands (ev):

    -7.0711  -4.6986  -3.6279  -0.5727   1.0310   1.9432   3.5126   3.8625
     5.2429   5.9803   8.4136   9.2304   9.8145   9.9728

          k =-0.3333-0.2102 0.1888 (  2199 PWs)   bands (ev):

    -6.8403  -5.0625  -3.2352  -0.9556   0.6371   1.6864   3.3886   4.1615
     5.1813   6.1251   8.7459   9.4093  10.0823  10.8163

          k =-0.3333-0.2102 0.2832 (  2205 PWs)   bands (ev):

    -6.4772  -5.5237  -2.7242  -1.5109   0.5362   1.2040   3.4376   4.1084
     5.3871   6.0724   9.0740   9.9159  10.3489  10.9601

          k =-0.3333-0.2102-0.3776 (  2210 PWs)   bands (ev):

    -6.0190  -6.0190  -2.1310  -2.1310   0.7560   0.7560   3.7497   3.7497
     5.7521   5.7521   9.7032   9.7032  10.7179  10.7179

          k =-0.1667-0.1576 0.0000 (  2212 PWs)   bands (ev):

    -8.1655  -5.4415  -2.4104   1.1219   1.6938   2.0111   2.7096   3.8892
     5.3163   6.9639   8.5228   9.3951  10.2756  11.1521

          k =-0.1667-0.1576 0.0944 (  2213 PWs)   bands (ev):

    -8.0806  -5.5487  -2.4181   0.7522   1.6470   2.0544   3.1638   3.7860
     5.5931   6.5737   8.6653   9.6347  10.3362  11.2195

          k =-0.1667-0.1576 0.1888 (  2203 PWs)   bands (ev):

    -7.8310  -5.8742  -2.3410   0.0284   1.4960   2.4429   3.2436   4.3735
     5.7839   5.9326   9.1905  10.0451  10.3847  10.7975

          k =-0.1667-0.1576 0.2832 (  2210 PWs)   bands (ev):

    -7.4341  -6.3709  -2.0438  -0.7855   1.6662   2.3944   3.4628   4.7543
     5.4698   6.0072   9.6815  10.0475  10.6441  10.9373

          k =-0.1667-0.1576-0.3776 (  2210 PWs)   bands (ev):

    -6.9256  -6.9256  -1.5079  -1.5079   2.0176   2.0176   4.0714   4.0714
     5.9029   5.9029   9.8399   9.8399  11.0011  11.0011

          k = 0.0000-0.1051 0.0000 (  2236 PWs)   bands (ev):

    -8.5390  -5.6729  -2.1280   0.6866   2.5840   2.8449   3.0104   4.6668
     4.9698   6.7346   8.1871   8.4764   9.2993  10.4687

          k = 0.0000-0.1051 0.0944 (  2222 PWs)   bands (ev):

    -8.4521  -5.7924  -2.1911   0.5811   2.3880   3.0757   3.1048   4.6211
     5.5093   6.1790   8.1999   9.0789   9.2014  10.3371

          k = 0.0000-0.1051 0.1888 (  2217 PWs)   bands (ev):

    -8.1963  -6.1486  -2.2002   0.0510   2.3802   3.2639   3.8915   4.4745
     5.2190   6.4139   8.4536   8.8215  10.0783  10.1292

          k = 0.0000-0.1051 0.2832 (  2207 PWs)   bands (ev):

    -7.7879  -6.6793  -1.9541  -0.7252   2.7786   3.5506   4.2173   4.2204
     4.9981   6.6963   8.6488   8.7917  10.1124  10.9733

          k = 0.0000-0.1051-0.3776 (  2198 PWs)   bands (ev):

    -7.2610  -7.2610  -1.4388  -1.4388   3.4195   3.4195   3.8908   3.8908
     6.0131   6.0131   8.8551   8.8551  10.3970  10.3970

          k = 0.6667 0.0000 0.0000 (  2204 PWs)   bands (ev):

    -7.1034  -4.6393  -3.8294  -0.3417   1.3631   2.1506   3.0055   3.8977
     5.5799   5.8382   8.3735   8.8261   9.4902  10.3402

          k = 0.6667 0.0000 0.0944 (  2199 PWs)   bands (ev):

    -7.0256  -4.7772  -3.6715  -0.4964   1.0039   2.0241   3.4890   3.7068
     5.6164   5.8843   8.7429   8.8349   9.8160   9.9082

          k = 0.6667 0.0000 0.1888 (  2198 PWs)   bands (ev):

    -6.7987  -5.0991  -3.2982  -0.9279   0.5662   1.6333   3.5126   4.1111
     5.7199   6.0582   8.4926   9.7391   9.9204  10.8617

          k = 0.6667 0.0000 0.2832 (  2209 PWs)   bands (ev):

    -6.4435  -5.5267  -2.7906  -1.5329   0.4367   1.0955   3.6161   4.1990
     5.9106   6.2297   8.6693  10.1343  10.2341  10.8771

          k = 0.6667 0.0000-0.3776 (  2218 PWs)   bands (ev):

    -5.9991  -5.9991  -2.1847  -2.1847   0.6423   0.6423   3.9190   3.9190
     6.1326   6.1326   9.3695   9.3695  10.7273  10.7273

          k =-0.1667-0.2627 0.0000 (  2211 PWs)   bands (ev):

    -8.0838  -5.6334  -2.3930   1.5446   1.7417   1.9162   2.2740   3.7409
     6.0495   7.2935   8.2458   9.0339  10.1807  11.1643

          k =-0.1667-0.2627 0.0944 (  2209 PWs)   bands (ev):

    -8.0007  -5.7079  -2.4413   0.8110   1.4770   2.3964   2.9412   3.7198
     6.1675   7.0054   8.4633   9.1822  10.2728  11.2386

          k =-0.1667-0.2627 0.1888 (  2205 PWs)   bands (ev):

    -7.7572  -5.9567  -2.4569  -0.1317   1.3741   2.6681   3.6644   4.1416
     6.2851   6.4553   8.9653   9.7356  10.3445  10.8818

          k =-0.1667-0.2627 0.2832 (  2197 PWs)   bands (ev):

    -7.3730  -6.3804  -2.2430  -1.0203   1.5732   2.3860   4.2142   4.9758
     5.8863   6.3215   9.5672   9.9322  10.1756  10.8543

          k =-0.1667-0.2627-0.3776 (  2194 PWs)   bands (ev):

    -6.8892  -6.8892  -1.7485  -1.7485   1.9519   1.9519   4.8073   4.8073
     6.0932   6.0932   9.7673   9.7673  10.3137  10.3137

          k =-0.0000-0.2102 0.0000 (  2220 PWs)   bands (ev):

    -8.4484  -5.8950  -2.0761   1.0697   2.2319   2.4928   2.9433   4.7790
     5.5623   7.4273   8.0430   8.3955   9.4572  10.3933

          k =-0.0000-0.2102 0.0944 (  2211 PWs)   bands (ev):

    -8.3634  -5.9755  -2.2130   0.7130   2.2155   3.0109   3.0639   4.7196
     5.9014   6.9471   8.0835   8.8462   9.2849  10.3011

          k =-0.0000-0.2102 0.1888 (  2207 PWs)   bands (ev):

    -8.1141  -6.2416  -2.3651  -0.1650   2.8531   3.2065   3.8341   4.5369
     6.0987   6.5812   8.3390   8.8735   9.5296  10.1738

          k =-0.0000-0.2102 0.2832 (  2206 PWs)   bands (ev):

    -7.7194  -6.6888  -2.2333  -1.0529   3.5078   3.5954   4.2392   4.7273
     5.3030   6.6636   8.6673   8.7615  10.2344  10.2587

          k =-0.0000-0.2102-0.3776 (  2200 PWs)   bands (ev):

    -7.2194  -7.2194  -1.7731  -1.7731   3.8729   3.8729   4.3415   4.3415
     5.8995   5.8995   8.8665   8.8665  10.5755  10.5755

          k =-1.0000 0.0000 0.0000 (  2202 PWs)   bands (ev):

    -8.3984  -6.0072  -2.0490   1.4465   1.8365   2.3389   2.9124   4.8328
     6.2078   7.7204   7.8327   8.0685   9.5026  10.3583

          k =-1.0000 0.0000 0.0944 (  2196 PWs)   bands (ev):

    -8.3146  -6.0708  -2.2147   0.7259   2.2547   2.9380   2.9810   4.7664
     6.4493   7.2313   8.0346   8.3841   9.3106  10.2869

          k =-1.0000 0.0000 0.1888 (  2220 PWs)   bands (ev):

    -8.0690  -6.2940  -2.4275  -0.2891   3.1799   3.2371   3.6690   4.5658
     6.5620   6.8866   8.2114   8.9059   9.0402  10.2024

          k =-1.0000 0.0000 0.2832 (  2196 PWs)   bands (ev):

    -7.6823  -6.6965  -2.3505  -1.2060   3.4878   4.2473   4.3344   4.4037
     5.8427   6.6408   8.5095   8.8623   9.8132  10.3029

          k =-1.0000 0.0000-0.3776 (  2204 PWs)   bands (ev):

    -7.1979  -7.1979  -1.9209  -1.9209   3.8640   3.8640   4.9597   4.9597
     5.7356   5.7356   8.8203   8.8203  10.4244  10.4245

     the Fermi energy is     7.7760 ev

!    total energy              =    -222.13028791 Ry
     Harris-Foulkes estimate   =    -222.13028791 Ry
     estimated scf accuracy    <          2.8E-09 Ry

     total all-electron energy =      -222.130288 Ry

     The total energy is the sum of the following terms:

     one-electron contribution =       8.21749209 Ry
     hartree contribution      =       6.42573194 Ry
     xc contribution           =     -18.24783377 Ry
     ewald contribution        =     -51.30110410 Ry
     one-center paw contrib.   =    -167.22456381 Ry
     smearing contrib. (-TS)   =      -0.00001026 Ry

     convergence has been achieved in   7 iterations

     negative rho (up, down):  3.684E-02 0.000E+00

     Forces acting on atoms (cartesian axes, Ry/au):

     atom    1 type  1   force =     0.00000000    0.01766034   -0.02965124
     atom    2 type  1   force =    -0.00000000   -0.01766034   -0.02965124
     atom    3 type  1   force =     0.00000000    0.01766034    0.02965124
     atom    4 type  1   force =    -0.00000000   -0.01766034    0.02965124

     Total force =     0.069024     Total SCF correction =     0.000072


     Computing stress (Cartesian axis) and pressure


     negative rho (up, down):  3.684E-02 0.000E+00
          total   stress  (Ry/bohr**3)                   (kbar)     P=   53.60
   0.00026614   0.00000000   0.00000000         39.15      0.00      0.00
   0.00000000   0.00037561   0.00000000          0.00     55.25      0.00
   0.00000000   0.00000000   0.00045142          0.00      0.00     66.41


     BFGS Geometry Optimization

     number of scf cycles    =   1
     number of bfgs steps    =   0

     enthalpy new            =    -222.1302879128 Ry

     new trust radius        =       0.0513014924 bohr
     new conv_thr            =       0.0000000100 Ry

     new unit-cell volume =    530.85420 a.u.^3 (    78.66447 Ang^3 )
     density =      2.61532 g/cm^3

CELL_PARAMETERS (alat=  6.26600000)
   0.503326804  -1.600892926   0.000000000
   0.503326804   1.600892926   0.000000000
   0.000000000   0.000000000   1.338941934

ATOMIC_POSITIONS (crystal)
P        0.401107663   0.598892337   0.586423638
P        0.098892337   0.901107663   0.086423638
P        0.901107663   0.098892337   0.913576362
P        0.598892337   0.401107663   0.413576362



     Writing output data file relax.save/
     Check: negative starting charge=   -0.024703
     NEW-OLD atomic charge density approx. for the potential

     Check: negative/imaginary core charge=   -0.000010    0.000000
     Check: negative starting charge=   -0.025251

     negative rho (up, down):  3.767E-02 0.000E+00
     extrapolated charge   20.53666, renormalised to   20.00000

     total cpu time spent up to now is       15.3 secs

     Self-consistent Calculation

     iteration #  1     ecut=    40.00 Ry     beta= 0.70
     Davidson diagonalization with overlap
     ethr =  1.00E-06,  avg # of iterations =  6.8

     negative rho (up, down):  3.607E-02 0.000E+00

     total cpu time spent up to now is       17.7 secs

     total energy              =    -222.12452274 Ry
     Harris-Foulkes estimate   =    -222.34473260 Ry
     estimated scf accuracy    <       0.01063855 Ry

     iteration #  2     ecut=    40.00 Ry     beta= 0.70
     Davidson diagonalization with overlap
     ethr =  5.32E-05,  avg # of iterations =  3.3

     negative rho (up, down):  3.596E-02 0.000E+00

     total cpu time spent up to now is       19.8 secs

     total energy              =    -222.13463008 Ry
     Harris-Foulkes estimate   =    -222.14773093 Ry
     estimated scf accuracy    <       0.03471379 Ry

     iteration #  3     ecut=    40.00 Ry     beta= 0.70
     Davidson diagonalization with overlap
     ethr =  5.32E-05,  avg # of iterations =  2.0

     negative rho (up, down):  3.590E-02 0.000E+00

     total cpu time spent up to now is       21.4 secs

     total energy              =    -222.13750637 Ry
     Harris-Foulkes estimate   =    -222.13818262 Ry
     estimated scf accuracy    <       0.00296011 Ry

     iteration #  4     ecut=    40.00 Ry     beta= 0.70
     Davidson diagonalization with overlap
     ethr =  1.48E-05,  avg # of iterations =  1.0

     negative rho (up, down):  3.596E-02 0.000E+00

     total cpu time spent up to now is       22.6 secs

     total energy              =    -222.13714973 Ry
     Harris-Foulkes estimate   =    -222.13759978 Ry
     estimated scf accuracy    <       0.00139743 Ry

     iteration #  5     ecut=    40.00 Ry     beta= 0.70
     Davidson diagonalization with overlap
     ethr =  6.99E-06,  avg # of iterations =  2.1

     negative rho (up, down):  3.592E-02 0.000E+00

     total cpu time spent up to now is       24.1 secs

     total energy              =    -222.13726237 Ry
     Harris-Foulkes estimate   =    -222.13729919 Ry
     estimated scf accuracy    <       0.00016372 Ry

     iteration #  6     ecut=    40.00 Ry     beta= 0.70
     Davidson diagonalization with overlap
     ethr =  8.19E-07,  avg # of iterations =  2.1

     negative rho (up, down):  3.588E-02 0.000E+00

     total cpu time spent up to now is       25.5 secs

     total energy              =    -222.13722413 Ry
     Harris-Foulkes estimate   =    -222.13726843 Ry
     estimated scf accuracy    <       0.00008031 Ry

     iteration #  7     ecut=    40.00 Ry     beta= 0.70
     Davidson diagonalization with overlap
     ethr =  4.02E-07,  avg # of iterations =  2.2

     negative rho (up, down):  3.587E-02 0.000E+00

     total cpu time spent up to now is       26.9 secs

     total energy              =    -222.13724708 Ry
     Harris-Foulkes estimate   =    -222.13724764 Ry
     estimated scf accuracy    <       0.00000274 Ry

     iteration #  8     ecut=    40.00 Ry     beta= 0.70
     Davidson diagonalization with overlap
     ethr =  1.37E-08,  avg # of iterations =  2.0

     negative rho (up, down):  3.587E-02 0.000E+00

     total cpu time spent up to now is       28.0 secs

     total energy              =    -222.13724713 Ry
     Harris-Foulkes estimate   =    -222.13724761 Ry
     estimated scf accuracy    <       0.00000112 Ry

     iteration #  9     ecut=    40.00 Ry     beta= 0.70
     Davidson diagonalization with overlap
     ethr =  5.58E-09,  avg # of iterations =  2.0

     negative rho (up, down):  3.587E-02 0.000E+00

     total cpu time spent up to now is       28.9 secs

     total energy              =    -222.13724723 Ry
     Harris-Foulkes estimate   =    -222.13724725 Ry
     estimated scf accuracy    <       0.00000008 Ry

     iteration # 10     ecut=    40.00 Ry     beta= 0.70
     Davidson diagonalization with overlap
     ethr =  3.95E-10,  avg # of iterations =  2.1

     negative rho (up, down):  3.588E-02 0.000E+00

     total cpu time spent up to now is       30.0 secs

     End of self-consistent calculation

          k = 0.0000 0.0000 0.0000 (  2215 PWs)   bands (ev):

    -8.5656  -5.6256  -2.4057   0.4148   2.4411   2.5500   3.0218   4.5349
     4.5503   6.0167   7.9975   8.1600   8.9717  10.1114

          k = 0.0000 0.0000 0.0934 (  2239 PWs)   bands (ev):

    -8.4800  -5.7627  -2.4186   0.3325   2.1722   2.7796   3.0848   4.4997
     5.1283   5.4504   8.1281   8.7383   8.8469   9.9674

          k = 0.0000 0.0000 0.1867 (  2201 PWs)   bands (ev):

    -8.2276  -6.1540  -2.3372  -0.0797   1.9021   3.2662   3.6184   4.3807
     4.4934   6.0590   8.3818   8.4945   9.7284   9.8324

          k = 0.0000 0.0000 0.2801 (  2204 PWs)   bands (ev):

    -7.8233  -6.7087  -2.0279  -0.7886   2.1547   3.5109   3.5402   4.1605
     4.7416   6.4167   8.2958   8.6046   9.6728  10.4627

          k = 0.0000 0.0000-0.3734 (  2208 PWs)   bands (ev):

    -7.2979  -7.2979  -1.4891  -1.4891   2.7317   2.7317   3.8601   3.8601
     5.7725   5.7725   8.5429   8.5429   9.9203   9.9203

          k = 0.1656 0.0521 0.0000 (  2220 PWs)   bands (ev):

    -8.2307  -5.3201  -2.6581   0.7200   1.5174   1.8610   2.6963   3.9237
     4.6702   6.1630   8.3021   8.9123  10.2644  10.6662

          k = 0.1656 0.0521 0.0934 (  2218 PWs)   bands (ev):

    -8.1464  -5.4615  -2.6124   0.5166   1.5972   1.6746   3.1905   3.5367
     5.0993   5.6792   8.6208   9.0665  10.1545  10.7208

          k = 0.1656 0.0521 0.1867 (  2210 PWs)   bands (ev):

    -7.8980  -5.8565  -2.4264  -0.0483   1.5797   1.8799   3.0256   4.1375
     4.8222   5.4523   9.1163   9.4172  10.0574  10.6882

          k = 0.1656 0.0521 0.2801 (  2206 PWs)   bands (ev):

    -7.5007  -6.4057  -2.0456  -0.7781   1.7550   2.2470   2.6944   3.8344
     5.0865   5.5437   9.0774   9.8002  10.5223  10.8993

          k = 0.1656 0.0521-0.3734 (  2206 PWs)   bands (ev):

    -6.9847  -6.9847  -1.4787  -1.4787   2.0825   2.0825   3.0760   3.0760
     5.4918   5.4918   9.3591   9.3591  10.9955  10.9955

          k = 0.3311 0.1041 0.0000 (  2218 PWs)   bands (ev):

    -7.2475  -4.4020  -3.8920  -0.7941   1.2898   1.5000   3.3154   4.0206
     4.6335   5.6638   7.6622   8.8356   9.1305   9.5263

          k = 0.3311 0.1041 0.0934 (  2212 PWs)   bands (ev):

    -7.1690  -4.6438  -3.6544  -0.8873   1.0094   1.5922   3.4990   3.7532
     4.4831   5.6409   8.1847   8.6345   9.1841   9.5823

          k = 0.3311 0.1041 0.1867 (  2208 PWs)   bands (ev):

    -6.9386  -5.0804  -3.2291  -1.1714   0.7137   1.5939   3.0242   3.8924
     4.3035   5.5389   8.3833   9.1318   9.6860  10.4018

          k = 0.3311 0.1041 0.2801 (  2200 PWs)   bands (ev):

    -6.5737  -5.5876  -2.7242  -1.6237   0.6788   1.3304   2.8524   3.5947
     4.4256   5.2329   9.0324   9.6791  10.4976  10.7255

          k = 0.3311 0.1041-0.3734 (  2200 PWs)   bands (ev):

    -6.1065  -6.1065  -2.1700  -2.1700   0.9249   0.9249   3.1405   3.1405
     4.7819   4.7819  10.0377  10.0377  10.3353  10.3353

          k =-0.4967-0.1562 0.0000 (  2200 PWs)   bands (ev):

    -5.7042  -5.7042  -2.8764  -2.8764   1.8115   1.8115   3.9147   3.9147
     4.6200   4.6200   8.0827   8.0827   8.7113   8.7113

          k =-0.4967-0.1562 0.0934 (  2198 PWs)   bands (ev):

    -5.6525  -5.6525  -2.9104  -2.9104   1.6684   1.6684   3.5495   3.5495
     4.9133   4.9133   8.0239   8.0239   9.4214   9.4214

          k =-0.4967-0.1562 0.1867 (  2206 PWs)   bands (ev):

    -5.5155  -5.5155  -3.0165  -3.0165   1.4472   1.4472   2.9282   2.9282
     5.1962   5.1962   8.6406   8.6406   9.8016   9.8016

          k =-0.4967-0.1562 0.2801 (  2212 PWs)   bands (ev):

    -5.3549  -5.3549  -3.1636  -3.1636   1.4306   1.4306   2.2835   2.2835
     5.3564   5.3564   9.0721   9.0721  10.2123  10.2123

          k =-0.4967-0.1562-0.3734 (  2216 PWs)   bands (ev):

    -5.2786  -5.2786  -3.2398  -3.2398   1.6155   1.6155   1.8570   1.8570
     5.4200   5.4200   8.9649   8.9649  11.0190  11.0190

          k = 0.3311 0.0000 0.0000 (  2212 PWs)   bands (ev):

    -7.2871  -4.2925  -3.8691  -0.8757   1.2844   1.3704   3.4020   4.1815
     4.4719   5.7264   7.8994   8.5724   8.9931   9.2428

          k = 0.3311 0.0000 0.0934 (  2218 PWs)   bands (ev):

    -7.2076  -4.5791  -3.5953  -0.9506   1.0855   1.4148   3.6702   3.7805
     4.3280   5.5665   8.4628   8.5064   9.0229   9.3174

          k = 0.3311 0.0000 0.1867 (  2210 PWs)   bands (ev):

    -6.9743  -5.0540  -3.1536  -1.1908   0.8380   1.5091   3.0740   3.8251
     4.1304   5.2983   8.2524   9.6506   9.7171  10.0464

          k = 0.3311 0.0000 0.2801 (  2194 PWs)   bands (ev):

    -6.6034  -5.5887  -2.6501  -1.5979   0.8365   1.4402   2.7114   3.4443
     4.1649   4.9252   8.9777  10.2185  10.6037  10.8317

          k = 0.3311 0.0000-0.3734 (  2198 PWs)   bands (ev):

    -6.1255  -6.1255  -2.1122  -2.1122   1.0966   1.0966   2.9515   2.9515
     4.4702   4.4702  10.1518  10.1518  10.7026  10.7026

          k = 0.4967 0.0521 0.0000 (  2200 PWs)   bands (ev):

    -5.7663  -5.6363  -3.0545  -2.6954   1.7362   1.8735   3.8926   3.9417
     4.3359   4.9415   7.9668   8.0639   8.7534   8.8643

          k = 0.4967 0.0521 0.0934 (  2200 PWs)   bands (ev):

    -5.7119  -5.5879  -3.0698  -2.7506   1.5798   1.7714   3.4811   3.5277
     4.6982   5.2906   7.7696   8.1045   9.3837   9.5060

          k = 0.4967 0.0521 0.1867 (  2206 PWs)   bands (ev):

    -5.5654  -5.4619  -3.1256  -2.9097   1.3081   1.6331   2.7329   3.0711
     4.9014   5.5650   8.2648   8.7977   9.5753  10.1730

          k = 0.4967 0.0521 0.2801 (  2212 PWs)   bands (ev):

    -5.3856  -5.3231  -3.2124  -3.1152   1.2293   1.6695   2.0547   2.5456
     5.0422   5.5158   9.0020   9.3856  10.0873  10.4593

          k = 0.4967 0.0521-0.3734 (  2210 PWs)   bands (ev):

    -5.2787  -5.2787  -3.2387  -3.2387   1.4583   1.4583   2.0611   2.0611
     5.2855   5.2855   9.2568   9.2568  11.0143  11.0143

          k =-0.3311-0.2082 0.0000 (  2202 PWs)   bands (ev):

    -7.1613  -4.6198  -3.9358  -0.6202   1.2870   1.8040   3.0378   3.7282
     5.0539   5.5775   7.5620   9.0698   9.1305   9.7323

          k =-0.3311-0.2082 0.0934 (  2193 PWs)   bands (ev):

    -7.0849  -4.7866  -3.7566  -0.7527   0.9442   1.8170   3.2849   3.5960
     4.9478   5.6747   8.0034   8.8051   9.4046   9.5894

          k =-0.3311-0.2082 0.1867 (  2199 PWs)   bands (ev):

    -6.8614  -5.1421  -3.3693  -1.1298   0.5522   1.5710   3.1098   3.9346
     4.8834   5.8083   8.3365   9.0133   9.6597  10.4373

          k =-0.3311-0.2082 0.2801 (  2205 PWs)   bands (ev):

    -6.5101  -5.5887  -2.8675  -1.6761   0.4483   1.0970   3.1681   3.8548
     5.0883   5.7496   8.6810   9.5586   9.9614  10.5214

          k =-0.3311-0.2082-0.3734 (  2210 PWs)   bands (ev):

    -6.0672  -6.0672  -2.2852  -2.2852   0.6592   0.6592   3.4865   3.4865
     5.4391   5.4391   9.3284   9.3284  10.3202  10.3202

          k =-0.1656-0.1562 0.0000 (  2212 PWs)   bands (ev):

    -8.1562  -5.5126  -2.6387   0.9933   1.4543   1.8799   2.5198   3.7078
     4.9845   6.5730   8.1899   8.9995  10.1340  10.7264

          k =-0.1656-0.1562 0.0934 (  2213 PWs)   bands (ev):

    -8.0734  -5.6150  -2.6464   0.5499   1.5647   1.8296   3.0146   3.5781
     5.2641   6.2075   8.3098   9.2238  10.1587  10.8252

          k =-0.1656-0.1562 0.1867 (  2203 PWs)   bands (ev):

    -7.8303  -5.9283  -2.5698  -0.2164   1.4441   2.2816   3.0774   4.1309
     5.4498   5.6266   8.7928   9.6482   9.9402  10.6061

          k =-0.1656-0.1562 0.2801 (  2210 PWs)   bands (ev):

    -7.4437  -6.4096  -2.2762  -1.0327   1.6235   2.3390   3.1928   4.4464
     5.2181   5.7164   9.2862   9.6332  10.2054  10.5713

          k =-0.1656-0.1562-0.3734 (  2210 PWs)   bands (ev):

    -6.9488  -6.9488  -1.7474  -1.7474   1.9750   1.9750   3.7794   3.7794
     5.6342   5.6342   9.4483   9.4483  10.6019  10.6019

          k = 0.0000-0.1041 0.0000 (  2236 PWs)   bands (ev):

    -8.5236  -5.7376  -2.3803   0.5631   2.3522   2.3823   2.9834   4.5962
     4.6447   6.3684   8.0463   8.1669   9.0781  10.0696

          k = 0.0000-0.1041 0.0934 (  2222 PWs)   bands (ev):

    -8.4388  -5.8520  -2.4378   0.4263   2.0197   2.8339   3.0478   4.5541
     5.1512   5.8339   8.0889   8.7367   8.9409   9.9431

          k = 0.0000-0.1041 0.1867 (  2217 PWs)   bands (ev):

    -8.1893  -6.1955  -2.4398  -0.1686   2.0758   3.2335   3.6300   4.4162
     4.9082   6.0498   8.3187   8.5543   9.6650   9.7411

          k = 0.0000-0.1041 0.2801 (  2207 PWs)   bands (ev):

    -7.7910  -6.7108  -2.1921  -0.9662   2.5039   3.5161   3.9203   4.1721
     4.7381   6.3929   8.3270   8.5897   9.7236  10.5614

          k = 0.0000-0.1041-0.3734 (  2198 PWs)   bands (ev):

    -7.2773  -7.2773  -1.6795  -1.6795   3.1430   3.1430   3.8505   3.8505
     5.7400   5.7400   8.5684   8.5684  10.0007  10.0007

          k = 0.6623 0.0000 0.0000 (  2204 PWs)   bands (ev):

    -7.1140  -4.7293  -3.9568  -0.5261   1.2760   2.0185   2.8202   3.5959
     5.2911   5.5462   7.9315   8.4044   9.1284   9.8898

          k = 0.6623 0.0000 0.0934 (  2199 PWs)   bands (ev):

    -7.0387  -4.8650  -3.8008  -0.6793   0.9163   1.8985   3.2986   3.4131
     5.3167   5.5882   8.3170   8.3852   9.3901   9.5396

          k = 0.6623 0.0000 0.1867 (  2198 PWs)   bands (ev):

    -6.8192  -5.1781  -3.4343  -1.1059   0.4830   1.5190   3.2328   3.8960
     5.4047   5.7525   8.0711   9.3400   9.4543  10.4976

          k = 0.6623 0.0000 0.2801 (  2209 PWs)   bands (ev):

    -6.4759  -5.5913  -2.9369  -1.7022   0.3526   0.9921   3.3485   3.9556
     5.5822   5.9043   8.2725   9.7614   9.8635  10.4368

          k = 0.6623 0.0000-0.3734 (  2218 PWs)   bands (ev):

    -6.0470  -6.0470  -2.3427  -2.3427   0.5502   0.5502   3.6606   3.6606
     5.7968   5.7968   8.9924   8.9924  10.3612  10.3612

          k =-0.1656-0.2603 0.0000 (  2211 PWs)   bands (ev):

    -8.0730  -5.7062  -2.6191   1.4129   1.4641   1.7869   2.1066   3.6021
     5.6889   6.9053   7.8656   8.6471  10.0531  10.7484

          k =-0.1656-0.2603 0.0934 (  2209 PWs)   bands (ev):

    -7.9921  -5.7757  -2.6667   0.5579   1.4188   2.1864   2.7912   3.5460
     5.8145   6.6301   8.0748   8.7748  10.1234  10.8416

          k =-0.1656-0.2603 0.1867 (  2205 PWs)   bands (ev):

    -7.7551  -6.0115  -2.6819  -0.3891   1.3313   2.5699   3.4370   3.9154
     5.9457   6.1148   8.5551   9.2979   9.9720  10.6557

          k =-0.1656-0.2603 0.2801 (  2197 PWs)   bands (ev):

    -7.3815  -6.4188  -2.4711  -1.2673   1.5333   2.3362   3.9188   4.7171
     5.5777   6.0276   9.1265   9.5334   9.7469  10.5077

          k =-0.1656-0.2603-0.3734 (  2194 PWs)   bands (ev):

    -6.9116  -6.9116  -1.9844  -1.9844   1.9098   1.9098   4.4982   4.4982
     5.8273   5.8273   9.3211   9.3211   9.9451   9.9451

          k = 0.0000-0.2082 0.0000 (  2220 PWs)   bands (ev):

    -8.4315  -5.9614  -2.3274   0.9421   2.0164   2.0619   2.9140   4.7125
     5.1995   7.0756   7.8777   8.0208   9.2155   9.9928

          k = 0.0000-0.2082 0.0934 (  2211 PWs)   bands (ev):

    -8.3487  -6.0368  -2.4550   0.5074   1.9539   2.7578   2.9807   4.6563
     5.5261   6.5849   7.9606   8.4424   9.0290   9.9034

          k = 0.0000-0.2082 0.1867 (  2207 PWs)   bands (ev):

    -8.1057  -6.2894  -2.5963  -0.4069   2.5914   3.1740   3.5604   4.4811
     5.7535   6.2190   8.1944   8.5697   9.1269   9.7792

          k = 0.0000-0.2082 0.2801 (  2206 PWs)   bands (ev):

    -7.7212  -6.7200  -2.4623  -1.2937   3.3172   3.4716   4.1915   4.4506
     4.9941   6.3651   8.4074   8.4824   9.8358   9.8381

          k = 0.0000-0.2082-0.3734 (  2200 PWs)   bands (ev):

    -7.2347  -7.2347  -2.0067  -2.0067   3.8316   3.8316   4.0467   4.0467
     5.6247   5.6247   8.5950   8.5950  10.1718  10.1718

          k =-0.9934 0.0000 0.0000 (  2202 PWs)   bands (ev):

    -8.3805  -6.0747  -2.2996   1.3185   1.6754   1.8681   2.8821   4.7681
     5.8205   7.4471   7.4588   7.8108   9.2515   9.9573

          k =-0.9934 0.0000 0.0934 (  2196 PWs)   bands (ev):

    -8.2988  -6.1332  -2.4547   0.4899   2.0750   2.5875   2.9499   4.7047
     6.0581   6.8756   7.8319   8.0416   9.0423   9.8875

          k =-0.9934 0.0000 0.1867 (  2220 PWs)   bands (ev):

    -8.0597  -6.3426  -2.6553  -0.5364   3.0246   3.1465   3.3522   4.5110
     6.2075   6.5231   8.0033   8.5858   8.6962   9.8043

          k =-0.9934 0.0000 0.2801 (  2196 PWs)   bands (ev):

    -7.6833  -6.7278  -2.5761  -1.4460   3.4508   4.0249   4.1630   4.1996
     5.5048   6.3500   8.2903   8.5236   9.4126   9.9024

          k =-0.9934 0.0000-0.3734 (  2204 PWs)   bands (ev):

    -7.2128  -7.2128  -2.1518  -2.1518   3.8223   3.8223   4.6525   4.6525
     5.4604   5.4604   8.5678   8.5678   9.9245   9.9245

     the Fermi energy is     7.4494 ev

!    total energy              =    -222.13724723 Ry
     Harris-Foulkes estimate   =    -222.13724724 Ry
     estimated scf accuracy    <          7.3E-09 Ry

     total all-electron energy =      -222.137247 Ry

     The total energy is the sum of the following terms:

     one-electron contribution =       8.09471257 Ry
     hartree contribution      =       6.29158814 Ry
     xc contribution           =     -18.15223628 Ry
     ewald contribution        =     -51.15672455 Ry
     one-center paw contrib.   =    -167.21456339 Ry
     smearing contrib. (-TS)   =      -0.00002373 Ry

     convergence has been achieved in  10 iterations

     negative rho (up, down):  3.588E-02 0.000E+00

     Forces acting on atoms (cartesian axes, Ry/au):

     atom    1 type  1   force =     0.00000000    0.00703273   -0.01102535
     atom    2 type  1   force =     0.00000000   -0.00703273   -0.01102535
     atom    3 type  1   force =     0.00000000    0.00703273    0.01102535
     atom    4 type  1   force =     0.00000000   -0.00703273    0.01102535

     Total force =     0.026155     Total SCF correction =     0.000202


     Computing stress (Cartesian axis) and pressure


     negative rho (up, down):  3.588E-02 0.000E+00
          total   stress  (Ry/bohr**3)                   (kbar)     P=   18.60
   0.00002318   0.00000000   0.00000000          3.41      0.00      0.00
   0.00000000   0.00019177   0.00000000          0.00     28.21      0.00
   0.00000000   0.00000000   0.00016437          0.00      0.00     24.18


     number of scf cycles    =   2
     number of bfgs steps    =   1

     enthalpy old            =    -222.1302879128 Ry
     enthalpy new            =    -222.1372472334 Ry

     CASE: enthalpy_new < enthalpy_old

     new trust radius        =       0.0370415210 bohr
     new conv_thr            =       0.0000000011 Ry

     new unit-cell volume =    539.45656 a.u.^3 (    79.93921 Ang^3 )
     density =      2.57361 g/cm^3

CELL_PARAMETERS (alat=  6.26600000)
   0.503898551  -1.613761590   0.000000000
   0.503898551   1.613761590   0.000000000
   0.000000000   0.000000000   1.348257443

ATOMIC_POSITIONS (crystal)
P        0.400508052   0.599491948   0.584160640
P        0.099491948   0.900508052   0.084160640
P        0.900508052   0.099491948   0.915839360
P        0.599491948   0.400508052   0.415839360



     Writing output data file relax.save/
     Check: negative starting charge=   -0.025251
     NEW-OLD atomic charge density approx. for the potential

     Check: negative/imaginary core charge=   -0.000010    0.000000
     Check: negative starting charge=   -0.025551

     negative rho (up, down):  3.622E-02 0.000E+00
     extrapolated charge   20.31892, renormalised to   20.00000

     total cpu time spent up to now is       31.4 secs

     Self-consistent Calculation

     iteration #  1     ecut=    40.00 Ry     beta= 0.70
     Davidson diagonalization with overlap
     ethr =  1.00E-06,  avg # of iterations =  5.8

     negative rho (up, down):  3.529E-02 0.000E+00

     total cpu time spent up to now is       33.4 secs

     total energy              =    -222.13460394 Ry
     Harris-Foulkes estimate   =    -222.26168511 Ry
     estimated scf accuracy    <       0.00325169 Ry

     iteration #  2     ecut=    40.00 Ry     beta= 0.70
     Davidson diagonalization with overlap
     ethr =  1.63E-05,  avg # of iterations =  3.4

     negative rho (up, down):  3.523E-02 0.000E+00

     total cpu time spent up to now is       34.6 secs

     total energy              =    -222.13787353 Ry
     Harris-Foulkes estimate   =    -222.14200990 Ry
     estimated scf accuracy    <       0.01112137 Ry

     iteration #  3     ecut=    40.00 Ry     beta= 0.70
     Davidson diagonalization with overlap
     ethr =  1.63E-05,  avg # of iterations =  2.0

     negative rho (up, down):  3.519E-02 0.000E+00

     total cpu time spent up to now is       35.5 secs

     total energy              =    -222.13874295 Ry
     Harris-Foulkes estimate   =    -222.13897581 Ry
     estimated scf accuracy    <       0.00102061 Ry

     iteration #  4     ecut=    40.00 Ry     beta= 0.70
     Davidson diagonalization with overlap
     ethr =  5.10E-06,  avg # of iterations =  1.0

     negative rho (up, down):  3.523E-02 0.000E+00

     total cpu time spent up to now is       36.2 secs

     total energy              =    -222.13858292 Ry
     Harris-Foulkes estimate   =    -222.13877439 Ry
     estimated scf accuracy    <       0.00047986 Ry

     iteration #  5     ecut=    40.00 Ry     beta= 0.70
     Davidson diagonalization with overlap
     ethr =  2.40E-06,  avg # of iterations =  2.3

     negative rho (up, down):  3.521E-02 0.000E+00

     total cpu time spent up to now is       37.1 secs

     total energy              =    -222.13865460 Ry
     Harris-Foulkes estimate   =    -222.13865784 Ry
     estimated scf accuracy    <       0.00001617 Ry

     iteration #  6     ecut=    40.00 Ry     beta= 0.70
     Davidson diagonalization with overlap
     ethr =  8.09E-08,  avg # of iterations =  1.6

     negative rho (up, down):  3.518E-02 0.000E+00

     total cpu time spent up to now is       37.8 secs

     total energy              =    -222.13864963 Ry
     Harris-Foulkes estimate   =    -222.13865560 Ry
     estimated scf accuracy    <       0.00001031 Ry

     iteration #  7     ecut=    40.00 Ry     beta= 0.70
     Davidson diagonalization with overlap
     ethr =  5.16E-08,  avg # of iterations =  2.0

     negative rho (up, down):  3.517E-02 0.000E+00

     total cpu time spent up to now is       38.7 secs

     total energy              =    -222.13865272 Ry
     Harris-Foulkes estimate   =    -222.13865292 Ry
     estimated scf accuracy    <       0.00000062 Ry

     iteration #  8     ecut=    40.00 Ry     beta= 0.70
     Davidson diagonalization with overlap
     ethr =  3.09E-09,  avg # of iterations =  2.0

     negative rho (up, down):  3.517E-02 0.000E+00

     total cpu time spent up to now is       39.5 secs

     total energy              =    -222.13865275 Ry
     Harris-Foulkes estimate   =    -222.13865282 Ry
     estimated scf accuracy    <       0.00000014 Ry

     iteration #  9     ecut=    40.00 Ry     beta= 0.70
     Davidson diagonalization with overlap
     ethr =  6.95E-10,  avg # of iterations =  2.0

     negative rho (up, down):  3.517E-02 0.000E+00

     total cpu time spent up to now is       40.4 secs

     total energy              =    -222.13865278 Ry
     Harris-Foulkes estimate   =    -222.13865278 Ry
     estimated scf accuracy    <          1.9E-09 Ry

     iteration # 10     ecut=    40.00 Ry     beta= 0.70
     Davidson diagonalization with overlap
     ethr =  9.59E-12,  avg # of iterations =  2.2

     negative rho (up, down):  3.517E-02 0.000E+00

     total cpu time spent up to now is       41.5 secs

     End of self-consistent calculation

          k = 0.0000 0.0000 0.0000 (  2215 PWs)   bands (ev):

    -8.5535  -5.6909  -2.5251   0.3396   2.2312   2.3026   3.0507   4.3462
     4.5171   5.8028   7.7972   8.1283   8.8946   9.9223

          k = 0.0000 0.0000 0.0927 (  2239 PWs)   bands (ev):

    -8.4693  -5.8207  -2.5442   0.2431   1.8937   2.6401   3.1129   4.4851
     4.9040   5.2490   8.0887   8.5229   8.7656   9.7810

          k = 0.0000 0.0000 0.1854 (  2201 PWs)   bands (ev):

    -8.2212  -6.1954  -2.4762  -0.2157   1.6931   3.2915   3.4741   4.3135
     4.3745   5.8369   8.3448   8.3956   9.5434   9.5639

          k = 0.0000 0.0000 0.2781 (  2204 PWs)   bands (ev):

    -7.8242  -6.7334  -2.1797  -0.9487   1.9824   3.3372   3.5607   4.1648
     4.6058   6.2470   8.1553   8.5236   9.4831  10.2491

          k = 0.0000 0.0000-0.3708 (  2208 PWs)   bands (ev):

    -7.3090  -7.3090  -1.6495  -1.6495   2.5656   2.5656   3.8737   3.8737
     5.6347   5.6347   8.4089   8.4089   9.7211   9.7211

          k = 0.1654 0.0516 0.0000 (  2220 PWs)   bands (ev):

    -8.2203  -5.3866  -2.7582   0.6448   1.3266   1.8637   2.5596   3.7963
     4.4771   5.9364   8.0993   8.7082  10.2328  10.4657

          k = 0.1654 0.0516 0.0927 (  2218 PWs)   bands (ev):

    -8.1375  -5.5206  -2.7204   0.4080   1.4256   1.6667   3.0754   3.4223
     4.9137   5.4690   8.4092   8.8379  10.0139  10.5824

          k = 0.1654 0.0516 0.1854 (  2210 PWs)   bands (ev):

    -7.8934  -5.8992  -2.5510  -0.1943   1.5543   1.7582   2.9530   4.0005
     4.6395   5.2841   8.8790   9.1882   9.8205  10.5576

          k = 0.1654 0.0516 0.2781 (  2206 PWs)   bands (ev):

    -7.5033  -6.4320  -2.1858  -0.9341   1.7466   2.1658   2.5974   3.6583
     4.9498   5.3881   8.8713   9.5815  10.3287  10.6423

          k = 0.1654 0.0516-0.3708 (  2206 PWs)   bands (ev):

    -6.9976  -6.9976  -1.6302  -1.6302   2.0769   2.0769   2.9075   2.9075
     5.3453   5.3453   9.1674   9.1674  10.8256  10.8256

          k = 0.3308 0.1033 0.0000 (  2218 PWs)   bands (ev):

    -7.2430  -4.4730  -3.9349  -0.9005   1.2504   1.4282   3.1842   3.8346
     4.4736   5.4784   7.4240   8.6293   8.8748   9.2634

          k = 0.3308 0.1033 0.0927 (  2212 PWs)   bands (ev):

    -7.1660  -4.7016  -3.7092  -0.9914   0.9620   1.5229   3.3484   3.5958
     4.3248   5.4518   7.9345   8.3882   8.9679   9.3486

          k = 0.3308 0.1033 0.1854 (  2208 PWs)   bands (ev):

    -6.9402  -5.1246  -3.2940  -1.2694   0.6612   1.5256   2.8578   3.7535
     4.1467   5.3479   8.1481   8.8900   9.4487  10.1583

          k = 0.3308 0.1033 0.2781 (  2200 PWs)   bands (ev):

    -6.5827  -5.6187  -2.7975  -1.7137   0.6195   1.2609   2.6989   3.4473
     4.2640   5.0477   8.8006   9.4601  10.2273  10.4700

          k = 0.3308 0.1033-0.3708 (  2200 PWs)   bands (ev):

    -6.1256  -6.1256  -2.2516  -2.2516   0.8582   0.8582   2.9931   2.9931
     4.6081   4.6081   9.7958   9.7958  10.0965  10.0965

          k =-0.4961-0.1549 0.0000 (  2200 PWs)   bands (ev):

    -5.7133  -5.7133  -2.9575  -2.9575   1.7518   1.7518   3.7734   3.7734
     4.4497   4.4497   7.8485   7.8485   8.4383   8.4383

          k =-0.4961-0.1549 0.0927 (  2198 PWs)   bands (ev):

    -5.6636  -5.6636  -2.9867  -2.9867   1.6042   1.6042   3.4051   3.4051
     4.7367   4.7367   7.7985   7.7985   9.1475   9.1475

          k =-0.4961-0.1549 0.1854 (  2206 PWs)   bands (ev):

    -5.5323  -5.5323  -3.0791  -3.0791   1.3715   1.3715   2.7847   2.7847
     5.0039   5.0039   8.4265   8.4265   9.5659   9.5659

          k =-0.4961-0.1549 0.2781 (  2212 PWs)   bands (ev):

    -5.3795  -5.3795  -3.2094  -3.2094   1.3418   1.3418   2.1440   2.1440
     5.1535   5.1535   8.8747   8.8747   9.9710   9.9710

          k =-0.4961-0.1549-0.3708 (  2216 PWs)   bands (ev):

    -5.3073  -5.3073  -3.2773  -3.2773   1.5432   1.5432   1.6975   1.6975
     5.2129   5.2129   8.7773   8.7773  10.7415  10.7415

          k = 0.3308 0.0000 0.0000 (  2212 PWs)   bands (ev):

    -7.2826  -4.3644  -3.9129  -0.9792   1.2452   1.2984   3.2546   3.9975
     4.3284   5.5267   7.6517   8.3703   8.7373   9.0219

          k = 0.3308 0.0000 0.0927 (  2218 PWs)   bands (ev):

    -7.2047  -4.6365  -3.6519  -1.0519   1.0378   1.3436   3.5273   3.5979
     4.1885   5.3714   8.2028   8.2587   8.8174   9.1137

          k = 0.3308 0.0000 0.1854 (  2210 PWs)   bands (ev):

    -6.9758  -5.0981  -3.2186  -1.2862   0.7799   1.4414   2.8994   3.6798
     3.9874   5.1146   8.0245   9.3718   9.5040   9.8244

          k = 0.3308 0.0000 0.2781 (  2194 PWs)   bands (ev):

    -6.6124  -5.6198  -2.7221  -1.6854   0.7695   1.3725   2.5482   3.2963
     4.0141   4.7533   8.7514   9.9924  10.3232  10.5862

          k = 0.3308 0.0000-0.3708 (  2198 PWs)   bands (ev):

    -6.1446  -6.1446  -2.1916  -2.1916   1.0242   1.0242   2.8016   2.8016
     4.3096   4.3096   9.9064   9.9064  10.4585  10.4585

          k = 0.4961 0.0516 0.0000 (  2200 PWs)   bands (ev):

    -5.7752  -5.6456  -3.1337  -2.7787   1.6757   1.8136   3.7623   3.7756
     4.1893   4.7674   7.7104   7.8352   8.4845   8.5807

          k = 0.4961 0.0516 0.0927 (  2200 PWs)   bands (ev):

    -5.7226  -5.5993  -3.1449  -2.8280   1.5165   1.7054   3.3210   3.3980
     4.5369   5.1011   7.5372   7.8772   9.1181   9.2323

          k = 0.4961 0.0516 0.1854 (  2206 PWs)   bands (ev):

    -5.5818  -5.4791  -3.1887  -2.9716   1.2357   1.5536   2.5819   2.9382
     4.7168   5.3576   8.0525   8.5783   9.3857   9.9062

          k = 0.4961 0.0516 0.2781 (  2212 PWs)   bands (ev):

    -5.4097  -5.3480  -3.2593  -3.1597   1.1428   1.5870   1.9026   2.4098
     4.8496   5.3059   8.7928   9.1960   9.8472  10.2143

          k = 0.4961 0.0516-0.3708 (  2210 PWs)   bands (ev):

    -5.3074  -5.3074  -3.2763  -3.2763   1.3619   1.3619   1.9247   1.9247
     5.0842   5.0842   9.0566   9.0566  10.7374  10.7374

          k =-0.3308-0.2066 0.0000 (  2202 PWs)   bands (ev):

    -7.1566  -4.6891  -3.9770  -0.7329   1.2465   1.7318   2.9278   3.5446
     4.8783   5.4088   7.3150   8.7836   8.9242   9.4450

          k =-0.3308-0.2066 0.0927 (  2193 PWs)   bands (ev):

    -7.0817  -4.8453  -3.8080  -0.8628   0.8996   1.7462   3.1471   3.4517
     4.7678   5.4967   7.7482   8.5407   9.1317   9.3704

          k =-0.3308-0.2066 0.1854 (  2199 PWs)   bands (ev):

    -6.8628  -5.1867  -3.4334  -1.2333   0.5066   1.5002   2.9571   3.8102
     4.6977   5.6147   8.0839   8.7589   9.3971  10.2084

          k =-0.3308-0.2066 0.2781 (  2205 PWs)   bands (ev):

    -6.5190  -5.6200  -2.9427  -1.7712   0.3993   1.0317   3.0221   3.7150
     4.8974   5.5462   8.4389   9.3361   9.7167  10.2602

          k =-0.3308-0.2066-0.3708 (  2210 PWs)   bands (ev):

    -6.0863  -6.0863  -2.3708  -2.3708   0.6028   0.6028   3.3420   3.3420
     5.2388   5.2388   9.0915   9.0915  10.0892  10.0892

          k =-0.1654-0.1549 0.0000 (  2212 PWs)   bands (ev):

    -8.1456  -5.5776  -2.7370   0.9163   1.2606   1.8622   2.4036   3.6100
     4.7666   6.3470   7.9778   8.7626  10.1130  10.5300

          k =-0.1654-0.1549 0.0927 (  2213 PWs)   bands (ev):

    -8.0643  -5.6736  -2.7509   0.4156   1.4939   1.7344   2.9297   3.4650
     5.0568   5.9879   8.0969   8.9667  10.0873  10.6159

          k =-0.1654-0.1549 0.1854 (  2203 PWs)   bands (ev):

    -7.8255  -5.9716  -2.6888  -0.3726   1.4284   2.1809   2.9954   3.9990
     5.2460   5.4411   8.5517   9.4198   9.6694  10.5213

          k =-0.1654-0.1549 0.2781 (  2210 PWs)   bands (ev):

    -7.4463  -6.4363  -2.4100  -1.1878   1.6186   2.3214   3.0295   4.2663
     5.0689   5.5509   9.0758   9.3818   9.9567  10.3819

          k =-0.1654-0.1549-0.3708 (  2210 PWs)   bands (ev):

    -6.9618  -6.9618  -1.8935  -1.8935   1.9708   1.9708   3.6002   3.6002
     5.4827   5.4827   9.2479   9.2479  10.3439  10.3439

          k = 0.0000-0.1033 0.0000 (  2236 PWs)   bands (ev):

    -8.5114  -5.8019  -2.4993   0.4870   2.0420   2.2558   3.0119   4.4277
     4.5789   6.1457   7.9429   8.0184   8.9947   9.8803

          k = 0.0000-0.1033 0.0927 (  2222 PWs)   bands (ev):

    -8.4281  -5.9096  -2.5609   0.3240   1.7795   2.6795   3.0754   4.5400
     4.9207   5.6209   8.0667   8.4956   8.8475   9.7555

          k = 0.0000-0.1033 0.1854 (  2217 PWs)   bands (ev):

    -8.1828  -6.2373  -2.5735  -0.3171   1.8867   3.2584   3.4854   4.4105
     4.7119   5.8247   8.2772   8.4535   9.3918   9.5535

          k = 0.0000-0.1033 0.2781 (  2207 PWs)   bands (ev):

    -7.7918  -6.7357  -2.3376  -1.1255   2.3315   3.5364   3.7376   4.1766
     4.5990   6.2229   8.1804   8.5069   9.5307  10.3444

          k = 0.0000-0.1033-0.3708 (  2198 PWs)   bands (ev):

    -7.2885  -7.2885  -1.8345  -1.8345   2.9689   2.9689   3.8641   3.8641
     5.6017   5.6017   8.4325   8.4325   9.7981   9.7981

          k = 0.6615 0.0000 0.0000 (  2204 PWs)   bands (ev):

    -7.1090  -4.7979  -3.9972  -0.6423   1.2345   1.9465   2.7166   3.4159
     5.1167   5.3824   7.6598   8.1205   8.9230   9.6006

          k = 0.6615 0.0000 0.0927 (  2199 PWs)   bands (ev):

    -7.0353  -4.9242  -3.8506  -0.7928   0.8724   1.8258   3.1945   3.2460
     5.1292   5.4193   8.0380   8.1092   9.1167   9.3319

          k = 0.6615 0.0000 0.1854 (  2198 PWs)   bands (ev):

    -6.8204  -5.2231  -3.4979  -1.2126   0.4397   1.4489   3.0809   3.7793
     5.2011   5.5698   7.8075   9.0802   9.1686  10.2895

          k = 0.6615 0.0000 0.2781 (  2209 PWs)   bands (ev):

    -6.4846  -5.6227  -3.0130  -1.8000   0.3072   0.9307   3.2019   3.8210
     5.3696   5.7013   8.0265   9.5267   9.6201  10.1756

          k = 0.6615 0.0000-0.3708 (  2218 PWs)   bands (ev):

    -6.0660  -6.0660  -2.4301  -2.4301   0.4984   0.4984   3.5169   3.5169
     5.5825   5.5825   8.7523   8.7523  10.1415  10.1415

          k =-0.1654-0.2582 0.0000 (  2211 PWs)   bands (ev):

    -8.0619  -5.7700  -2.7155   1.2335   1.3318   1.7850   2.0067   3.5303
     5.4489   6.6832   7.6003   8.4393  10.0418  10.5557

          k =-0.1654-0.2582 0.0927 (  2209 PWs)   bands (ev):

    -7.9825  -5.8341  -2.7682   0.3910   1.3973   2.0627   2.7103   3.4578
     5.5851   6.4052   7.8166   8.5447  10.0871  10.6610

          k =-0.1654-0.2582 0.1854 (  2205 PWs)   bands (ev):

    -7.7500  -6.0556  -2.7959  -0.5521   1.3258   2.5124   3.3098   3.7954
     5.7351   5.9007   8.2880   9.0390   9.7587  10.5538

          k =-0.1654-0.2582 0.2781 (  2197 PWs)   bands (ev):

    -7.3838  -6.4461  -2.5997  -1.4208   1.5329   2.3259   3.7381   4.5774
     5.3779   5.8483   8.8394   9.3207   9.5038  10.2640

          k =-0.1654-0.2582-0.3708 (  2194 PWs)   bands (ev):

    -6.9246  -6.9246  -2.1261  -2.1261   1.9081   1.9081   4.3125   4.3125
     5.6642   5.6642   9.0617   9.0617   9.7295   9.7295

          k = 0.0000-0.2066 0.0000 (  2220 PWs)   bands (ev):

    -8.4190  -6.0241  -2.4450   0.8622   1.7172   1.9560   2.9418   4.6958
     4.9553   6.8420   7.7486   7.8554   9.1225   9.8034

          k = 0.0000-0.2066 0.0927 (  2211 PWs)   bands (ev):

    -8.3376  -6.0940  -2.5738   0.3657   1.7890   2.5831   3.0077   4.6429
     5.2784   6.3529   7.9292   8.1757   8.9308   9.7137

          k = 0.0000-0.2066 0.1854 (  2207 PWs)   bands (ev):

    -8.0989  -6.3320  -2.7217  -0.5671   2.4315   3.1983   3.4049   4.4762
     5.5300   5.9890   8.1377   8.4421   8.8684   9.5864

          k = 0.0000-0.2066 0.2781 (  2206 PWs)   bands (ev):

    -7.7218  -6.7456  -2.5984  -1.4497   3.1422   3.4914   4.1964   4.3029
     4.7943   6.1968   8.2422   8.3903   9.5570   9.6382

          k = 0.0000-0.2066-0.3708 (  2200 PWs)   bands (ev):

    -7.2460  -7.2460  -2.1535  -2.1535   3.8451   3.8451   3.8596   3.8596
     5.4818   5.4818   8.4596   8.4596   9.9614   9.9614

          k =-0.9923 0.0000 0.0000 (  2202 PWs)   bands (ev):

    -8.3676  -6.1369  -2.4166   1.2347   1.5726   1.5790   2.9097   4.7517
     5.5568   7.1707   7.2225   7.7900   9.1554   9.7679

          k =-0.9923 0.0000 0.0927 (  2196 PWs)   bands (ev):

    -8.2873  -6.1903  -2.5717   0.3280   1.9732   2.3756   2.9766   4.6916
     5.7952   6.6320   7.6263   7.9546   8.9392   9.6967

          k =-0.9923 0.0000 0.1854 (  2220 PWs)   bands (ev):

    -8.0526  -6.3857  -2.7774  -0.6989   2.9132   3.1517   3.1706   4.5063
     5.9728   6.2875   7.8678   8.4516   8.5152   9.6086

          k =-0.9923 0.0000 0.2781 (  2196 PWs)   bands (ev):

    -7.6837  -6.7537  -2.7085  -1.6001   3.4705   3.8250   4.0445   4.2047
     5.2800   6.1881   8.1649   8.3523   9.1686   9.6984

          k =-0.9923 0.0000-0.3708 (  2204 PWs)   bands (ev):

    -7.2240  -7.2240  -2.2954  -2.2954   3.8357   3.8357   4.4594   4.4594
     5.3121   5.3121   8.4368   8.4368   9.6011   9.6011

     the Fermi energy is     7.1935 ev

!    total energy              =    -222.13865278 Ry
     Harris-Foulkes estimate   =    -222.13865278 Ry
     estimated scf accuracy    <          7.9E-10 Ry

     total all-electron energy =      -222.138653 Ry

     The total energy is the sum of the following terms:

     one-electron contribution =       7.99665584 Ry
     hartree contribution      =       6.22805161 Ry
     xc contribution           =     -18.09641996 Ry
     ewald contribution        =     -51.05801416 Ry
     one-center paw contrib.   =    -167.20890613 Ry
     smearing contrib. (-TS)   =      -0.00001998 Ry

     convergence has been achieved in  10 iterations

     negative rho (up, down):  3.517E-02 0.000E+00

     Forces acting on atoms (cartesian axes, Ry/au):

     atom    1 type  1   force =     0.00000000   -0.00089134   -0.00039892
     atom    2 type  1   force =     0.00000000    0.00089134   -0.00039892
     atom    3 type  1   force =     0.00000000   -0.00089134    0.00039892
     atom    4 type  1   force =     0.00000000    0.00089134    0.00039892

     Total force =     0.001953     Total SCF correction =     0.000066


     Computing stress (Cartesian axis) and pressure


     negative rho (up, down):  3.517E-02 0.000E+00
          total   stress  (Ry/bohr**3)                   (kbar)     P=   -0.19
  -0.00006373  -0.00000000   0.00000000         -9.37     -0.00      0.00
   0.00000000   0.00005655   0.00000000          0.00      8.32      0.00
   0.00000000   0.00000000   0.00000337          0.00      0.00      0.50


     number of scf cycles    =   3
     number of bfgs steps    =   2

     enthalpy old            =    -222.1372472334 Ry
     enthalpy new            =    -222.1386527755 Ry

     CASE: enthalpy_new < enthalpy_old

     new trust radius        =       0.0096848231 bohr
     new conv_thr            =            1.0E-10 Ry

     new unit-cell volume =    540.04428 a.u.^3 (    80.02631 Ang^3 )
     density =      2.57081 g/cm^3

CELL_PARAMETERS (alat=  6.26600000)
   0.503089437  -1.617126108   0.000000000
   0.503089437   1.617126108   0.000000000
   0.000000000   0.000000000   1.349084393

ATOMIC_POSITIONS (crystal)
P        0.400513600   0.599486400   0.583937739
P        0.099486400   0.900513600   0.083937739
P        0.900513600   0.099486400   0.916062261
P        0.599486400   0.400513600   0.416062261



     Writing output data file relax.save/
     Check: negative starting charge=   -0.025551
     NEW-OLD atomic charge density approx. for the potential

     Check: negative/imaginary core charge=   -0.000010    0.000000
     Check: negative starting charge=   -0.025556

     negative rho (up, down):  3.517E-02 0.000E+00
     extrapolated charge   20.02177, renormalised to   20.00000

     total cpu time spent up to now is       42.7 secs

     Self-consistent Calculation

     iteration #  1     ecut=    40.00 Ry     beta= 0.70
     Davidson diagonalization with overlap
     ethr =  1.00E-06,  avg # of iterations =  2.5

     Threshold (ethr) on eigenvalues was too large:
     Diagonalizing with lowered threshold

     Davidson diagonalization with overlap
     ethr =  5.24E-08,  avg # of iterations =  2.0

     negative rho (up, down):  3.512E-02 0.000E+00

     total cpu time spent up to now is       45.4 secs

     total energy              =    -222.13874256 Ry
     Harris-Foulkes estimate   =    -222.14706883 Ry
     estimated scf accuracy    <       0.00001089 Ry

     iteration #  2     ecut=    40.00 Ry     beta= 0.70
     Davidson diagonalization with overlap
     ethr =  5.45E-08,  avg # of iterations =  3.0

     negative rho (up, down):  3.512E-02 0.000E+00

     total cpu time spent up to now is       47.2 secs

     total energy              =    -222.13875406 Ry
     Harris-Foulkes estimate   =    -222.13876846 Ry
     estimated scf accuracy    <       0.00004074 Ry

     iteration #  3     ecut=    40.00 Ry     beta= 0.70
     Davidson diagonalization with overlap
     ethr =  5.45E-08,  avg # of iterations =  2.0

     negative rho (up, down):  3.512E-02 0.000E+00

     total cpu time spent up to now is       48.7 secs

     total energy              =    -222.13875597 Ry
     Harris-Foulkes estimate   =    -222.13875769 Ry
     estimated scf accuracy    <       0.00000460 Ry

     iteration #  4     ecut=    40.00 Ry     beta= 0.70
     Davidson diagonalization with overlap
     ethr =  2.30E-08,  avg # of iterations =  1.7

     negative rho (up, down):  3.512E-02 0.000E+00

     total cpu time spent up to now is       50.1 secs

     total energy              =    -222.13875605 Ry
     Harris-Foulkes estimate   =    -222.13875636 Ry
     estimated scf accuracy    <       0.00000066 Ry

     iteration #  5     ecut=    40.00 Ry     beta= 0.70
     Davidson diagonalization with overlap
     ethr =  3.30E-09,  avg # of iterations =  2.6

     negative rho (up, down):  3.512E-02 0.000E+00

     total cpu time spent up to now is       51.0 secs

     total energy              =    -222.13875627 Ry
     Harris-Foulkes estimate   =    -222.13875628 Ry
     estimated scf accuracy    <       0.00000002 Ry

     iteration #  6     ecut=    40.00 Ry     beta= 0.70
     Davidson diagonalization with overlap
     ethr =  1.19E-10,  avg # of iterations =  2.0

     negative rho (up, down):  3.512E-02 0.000E+00

     total cpu time spent up to now is       51.8 secs

     total energy              =    -222.13875628 Ry
     Harris-Foulkes estimate   =    -222.13875628 Ry
     estimated scf accuracy    <          7.0E-10 Ry

     iteration #  7     ecut=    40.00 Ry     beta= 0.70
     Davidson diagonalization with overlap
     ethr =  3.48E-12,  avg # of iterations =  2.2

     negative rho (up, down):  3.512E-02 0.000E+00

     total cpu time spent up to now is       52.7 secs

     total energy              =    -222.13875628 Ry
     Harris-Foulkes estimate   =    -222.13875628 Ry
     estimated scf accuracy    <          1.5E-10 Ry

     iteration #  8     ecut=    40.00 Ry     beta= 0.70
     Davidson diagonalization with overlap
     ethr =  7.43E-13,  avg # of iterations =  2.0

     negative rho (up, down):  3.512E-02 0.000E+00

     total cpu time spent up to now is       53.6 secs

     End of self-consistent calculation

          k = 0.0000 0.0000 0.0000 (  2215 PWs)   bands (ev):

    -8.5577  -5.7140  -2.5247   0.3303   2.2008   2.2842   3.0730   4.3175
     4.5311   5.7907   7.7658   8.1460   8.9145   9.9302

          k = 0.0000 0.0000 0.0927 (  2239 PWs)   bands (ev):

    -8.4737  -5.8415  -2.5475   0.2312   1.8655   2.6242   3.1349   4.4995
     4.8774   5.2340   8.0978   8.5014   8.7865   9.7894

          k = 0.0000 0.0000 0.1853 (  2201 PWs)   bands (ev):

    -8.2262  -6.2111  -2.4873  -0.2347   1.6723   3.3129   3.4641   4.2970
     4.3900   5.8159   8.3619   8.4180   9.5318   9.5522

          k = 0.0000 0.0000 0.2780 (  2204 PWs)   bands (ev):

    -7.8303  -6.7444  -2.1973  -0.9710   1.9658   3.3224   3.5811   4.1819
     4.5999   6.2375   8.1735   8.5389   9.4913  10.2533

          k = 0.0000 0.0000-0.3706 (  2208 PWs)   bands (ev):

    -7.3170  -7.3170  -1.6708  -1.6708   2.5503   2.5503   3.8926   3.8926
     5.6325   5.6325   8.4230   8.4230   9.7276   9.7276

          k = 0.1656 0.0515 0.0000 (  2220 PWs)   bands (ev):

    -8.2235  -5.4082  -2.7525   0.6365   1.3187   1.8696   2.5425   3.7808
     4.4525   5.9234   8.0709   8.7006  10.2650  10.4817

          k = 0.1656 0.0515 0.0927 (  2218 PWs)   bands (ev):

    -8.1408  -5.5398  -2.7185   0.3974   1.4166   1.6700   3.0637   3.4091
     4.8942   5.4541   8.3918   8.8180  10.0253  10.5935

          k = 0.1656 0.0515 0.1853 (  2210 PWs)   bands (ev):

    -7.8973  -5.9131  -2.5569  -0.2094   1.5562   1.7519   2.9472   3.9920
     4.6226   5.2741   8.8645   9.1800   9.8002  10.5823

          k = 0.1656 0.0515 0.2780 (  2206 PWs)   bands (ev):

    -7.5082  -6.4414  -2.1982  -0.9512   1.7523   2.1613   2.5921   3.6447
     4.9415   5.3833   8.8720   9.5725  10.3422  10.6154

          k = 0.1656 0.0515-0.3706 (  2206 PWs)   bands (ev):

    -7.0042  -7.0042  -1.6462  -1.6462   2.0831   2.0831   2.8932   2.8932
     5.3405   5.3405   9.1710   9.1710  10.8359  10.8359

          k = 0.3313 0.1031 0.0000 (  2218 PWs)   bands (ev):

    -7.2429  -4.4904  -3.9247  -0.9046   1.2440   1.4234   3.1715   3.8133
     4.4594   5.4694   7.4031   8.6174   8.8521   9.2288

          k = 0.3313 0.1031 0.0927 (  2212 PWs)   bands (ev):

    -7.1659  -4.7121  -3.7058  -0.9955   0.9553   1.5164   3.3326   3.5819
     4.3124   5.4394   7.9108   8.3703   8.9510   9.3215

          k = 0.3313 0.1031 0.1853 (  2208 PWs)   bands (ev):

    -6.9405  -5.1306  -3.2946  -1.2733   0.6529   1.5160   2.8449   3.7462
     4.1342   5.3309   8.1309   8.8641   9.4281  10.1372

          k = 0.3313 0.1031 0.2780 (  2200 PWs)   bands (ev):

    -6.5837  -5.6224  -2.8000  -1.7175   0.6096   1.2483   2.6922   3.4417
     4.2492   5.0300   8.7842   9.4377  10.2071  10.4437

          k = 0.3313 0.1031-0.3706 (  2200 PWs)   bands (ev):

    -6.1277  -6.1277  -2.2550  -2.2550   0.8466   0.8466   2.9878   2.9878
     4.5915   4.5915   9.7767   9.7767  10.0763  10.0763

          k =-0.4969-0.1546 0.0000 (  2200 PWs)   bands (ev):

    -5.7079  -5.7079  -2.9685  -2.9685   1.7480   1.7480   3.7630   3.7630
     4.4370   4.4370   7.8248   7.8248   8.4129   8.4129

          k =-0.4969-0.1546 0.0927 (  2198 PWs)   bands (ev):

    -5.6583  -5.6583  -2.9972  -2.9972   1.5999   1.5999   3.3937   3.3937
     4.7231   4.7231   7.7775   7.7775   9.1209   9.1209

          k =-0.4969-0.1546 0.1853 (  2206 PWs)   bands (ev):

    -5.5271  -5.5271  -3.0883  -3.0883   1.3657   1.3657   2.7726   2.7726
     4.9877   4.9877   8.4082   8.4082   9.5417   9.5417

          k =-0.4969-0.1546 0.2780 (  2212 PWs)   bands (ev):

    -5.3745  -5.3745  -3.2171  -3.2171   1.3340   1.3340   2.1322   2.1322
     5.1358   5.1358   8.8532   8.8532   9.9546   9.9546

          k =-0.4969-0.1546-0.3706 (  2216 PWs)   bands (ev):

    -5.3024  -5.3024  -3.2844  -3.2844   1.5347   1.5347   1.6857   1.6857
     5.1947   5.1947   8.7564   8.7564  10.7251  10.7251

          k = 0.3313 0.0000 0.0000 (  2212 PWs)   bands (ev):

    -7.2821  -4.3832  -3.9031  -0.9822   1.2387   1.2944   3.2412   3.9749
     4.3151   5.5157   7.6278   8.3607   8.7181   8.9935

          k = 0.3313 0.0000 0.0927 (  2218 PWs)   bands (ev):

    -7.2043  -4.6468  -3.6501  -1.0551   1.0296   1.3391   3.5165   3.5759
     4.1774   5.3593   8.1764   8.2412   8.8078   9.0876

          k = 0.3313 0.0000 0.1853 (  2210 PWs)   bands (ev):

    -6.9759  -5.1040  -3.2205  -1.2896   0.7694   1.4345   2.8827   3.6735
     3.9765   5.1003   8.0089   9.3439   9.4777   9.8121

          k = 0.3313 0.0000 0.2780 (  2194 PWs)   bands (ev):

    -6.6131  -5.6233  -2.7254  -1.6891   0.7568   1.3593   2.5407   3.2921
     4.0024   4.7394   8.7365   9.9652  10.2999  10.5646

          k = 0.3313 0.0000-0.3706 (  2198 PWs)   bands (ev):

    -6.1464  -6.1464  -2.1953  -2.1953   1.0097   1.0097   2.7976   2.7976
     4.2968   4.2968   9.8910   9.8910  10.4311  10.4311

          k = 0.4969 0.0515 0.0000 (  2200 PWs)   bands (ev):

    -5.7692  -5.6408  -3.1425  -2.7919   1.6732   1.8087   3.7531   3.7638
     4.1788   4.7531   7.6845   7.8135   8.4582   8.5542

          k = 0.4969 0.0515 0.0927 (  2200 PWs)   bands (ev):

    -5.7168  -5.5945  -3.1535  -2.8404   1.5137   1.6994   3.3096   3.3883
     4.5236   5.0852   7.5163   7.8569   9.0936   9.2046

          k = 0.4969 0.0515 0.1853 (  2206 PWs)   bands (ev):

    -5.5762  -5.4745  -3.1967  -2.9820   1.2319   1.5449   2.5716   2.9257
     4.7015   5.3394   8.0352   8.5617   9.3653   9.8771

          k = 0.4969 0.0515 0.2780 (  2212 PWs)   bands (ev):

    -5.4045  -5.3433  -3.2665  -3.1679   1.1375   1.5760   1.8929   2.3952
     4.8347   5.2883   8.7715   9.1714   9.8327  10.1930

          k = 0.4969 0.0515-0.3706 (  2210 PWs)   bands (ev):

    -5.3025  -5.3025  -3.2834  -3.2834   1.3551   1.3551   1.9102   1.9102
     5.0686   5.0686   9.0313   9.0313  10.7209  10.7209

          k =-0.3313-0.2061 0.0000 (  2202 PWs)   bands (ev):

    -7.1573  -4.7038  -3.9662  -0.7396   1.2405   1.7250   2.9174   3.5259
     4.8625   5.4020   7.2935   8.7474   8.9124   9.4135

          k =-0.3313-0.2061 0.0927 (  2193 PWs)   bands (ev):

    -7.0824  -4.8557  -3.8017  -0.8690   0.8936   1.7375   3.1349   3.4400
     4.7519   5.4854   7.7246   8.5164   9.0967   9.3579

          k =-0.3313-0.2061 0.1853 (  2199 PWs)   bands (ev):

    -6.8639  -5.1929  -3.4316  -1.2384   0.5004   1.4895   2.9480   3.8021
     4.6795   5.5970   8.0618   8.7329   9.3696  10.1923

          k =-0.3313-0.2061 0.2780 (  2205 PWs)   bands (ev):

    -6.5207  -5.6240  -2.9436  -1.7752   0.3927   1.0222   3.0143   3.7069
     4.8762   5.5248   8.4176   9.3154   9.6967  10.2379

          k =-0.3313-0.2061-0.3706 (  2210 PWs)   bands (ev):

    -6.0889  -6.0889  -2.3735  -2.3735   0.5951   0.5951   3.3340   3.3340
     5.2164   5.2164   9.0708   9.0708  10.0725  10.0725

          k =-0.1656-0.1546 0.0000 (  2212 PWs)   bands (ev):

    -8.1494  -5.5969  -2.7311   0.9065   1.2508   1.8667   2.3874   3.6002
     4.7400   6.3331   7.9539   8.7428  10.1467  10.5468

          k =-0.1656-0.1546 0.0927 (  2213 PWs)   bands (ev):

    -8.0683  -5.6912  -2.7480   0.4036   1.4896   1.7314   2.9213   3.4535
     5.0348   5.9700   8.0805   8.9398  10.1107  10.6135

          k =-0.1656-0.1546 0.1853 (  2203 PWs)   bands (ev):

    -7.8300  -5.9852  -2.6923  -0.3874   1.4335   2.1741   2.9895   3.9889
     5.2265   5.4252   8.5335   9.4064   9.6518  10.5448

          k =-0.1656-0.1546 0.2780 (  2210 PWs)   bands (ev):

    -7.4518  -6.4460  -2.4195  -1.2029   1.6264   2.3270   3.0123   4.2515
     5.0544   5.5417   9.0747   9.3630   9.9429  10.3927

          k =-0.1656-0.1546-0.3706 (  2210 PWs)   bands (ev):

    -6.9689  -6.9689  -1.9068  -1.9068   1.9789   1.9789   3.5818   3.5818
     5.4737   5.4737   9.2498   9.2498  10.3222  10.3222

[...]
     estimated scf accuracy    <       0.00360175 Ry

     iteration #  3     ecut=    40.00 Ry     beta= 0.70
     Davidson diagonalization with overlap
     ethr =  1.80E-05,  avg # of iterations =  2.0

     negative rho (up, down):  3.546E-02 0.000E+00

     total cpu time spent up to now is      221.6 secs

     total energy              =    -222.13972306 Ry
     Harris-Foulkes estimate   =    -222.13993713 Ry
     estimated scf accuracy    <       0.00038313 Ry

     iteration #  4     ecut=    40.00 Ry     beta= 0.70
     Davidson diagonalization with overlap
     ethr =  1.92E-06,  avg # of iterations =  3.4

     negative rho (up, down):  3.551E-02 0.000E+00

     total cpu time spent up to now is      223.4 secs

     total energy              =    -222.13982829 Ry
     Harris-Foulkes estimate   =    -222.13988991 Ry
     estimated scf accuracy    <       0.00012525 Ry

     iteration #  5     ecut=    40.00 Ry     beta= 0.70
     Davidson diagonalization with overlap
     ethr =  6.26E-07,  avg # of iterations =  2.0

     negative rho (up, down):  3.551E-02 0.000E+00

     total cpu time spent up to now is      225.0 secs

     total energy              =    -222.13985586 Ry
     Harris-Foulkes estimate   =    -222.13985610 Ry
     estimated scf accuracy    <       0.00000105 Ry

     iteration #  6     ecut=    40.00 Ry     beta= 0.70
     Davidson diagonalization with overlap
     ethr =  5.27E-09,  avg # of iterations =  2.8

     negative rho (up, down):  3.550E-02 0.000E+00

     total cpu time spent up to now is      226.7 secs

     total energy              =    -222.13985643 Ry
     Harris-Foulkes estimate   =    -222.13985644 Ry
     estimated scf accuracy    <       0.00000007 Ry

     iteration #  7     ecut=    40.00 Ry     beta= 0.70
     Davidson diagonalization with overlap
     ethr =  3.37E-10,  avg # of iterations =  2.0

     negative rho (up, down):  3.550E-02 0.000E+00

     total cpu time spent up to now is      228.1 secs

     total energy              =    -222.13985644 Ry
     Harris-Foulkes estimate   =    -222.13985644 Ry
     estimated scf accuracy    <          4.9E-09 Ry

     iteration #  8     ecut=    40.00 Ry     beta= 0.70
     Davidson diagonalization with overlap
     ethr =  2.46E-11,  avg # of iterations =  2.5

     negative rho (up, down):  3.550E-02 0.000E+00

     total cpu time spent up to now is      229.8 secs

     total energy              =    -222.13985644 Ry
     Harris-Foulkes estimate   =    -222.13985644 Ry
     estimated scf accuracy    <          9.2E-10 Ry

     iteration #  9     ecut=    40.00 Ry     beta= 0.70
     Davidson diagonalization with overlap
     ethr =  4.60E-12,  avg # of iterations =  2.0

     negative rho (up, down):  3.550E-02 0.000E+00

     total cpu time spent up to now is      230.9 secs

     End of self-consistent calculation

          k = 0.0000 0.0000 0.0000 (  2439 PWs)   bands (ev):

    -9.1107  -6.4172  -3.1762  -0.1037   1.4735   1.6474   2.5518   3.7822
     4.0635   5.3944   7.1639   7.5852   8.4609   9.3093

          k = 0.0000 0.0000 0.0914 (  2423 PWs)   bands (ev):

    -9.0305  -6.5378  -3.1921  -0.2913   1.2966   1.9757   2.6118   4.0221
     4.2741   4.8367   7.5618   7.8627   8.3237   9.2125

          k = 0.0000 0.0000 0.1828 (  2415 PWs)   bands (ev):

    -8.7942  -6.8859  -3.1265  -0.8870   1.3000   2.7845   2.8081   3.8891
     3.9074   5.1427   7.8198   7.9555   8.8531   9.0614

          k = 0.0000 0.0000 0.2741 (  2424 PWs)   bands (ev):

    -8.4170  -7.3880  -2.8442  -1.6467   1.6516   2.9958   3.0472   3.6583
     3.8917   5.5154   7.7379   8.0128   9.0731   9.8788

          k = 0.0000 0.0000-0.3655 (  2454 PWs)   bands (ev):

    -7.9294  -7.9294  -2.3336  -2.3336   2.2377   2.2377   3.3581   3.3581
     4.9178   4.9178   7.9521   7.9521   9.3478   9.3478

          k = 0.1667 0.0493 0.0000 (  2431 PWs)   bands (ev):

    -8.7769  -6.0948  -3.3751   0.1892   0.7786   1.2689   1.9028   3.1076
     3.9289   5.4589   7.4599   8.0342   9.8019  10.0337

          k = 0.1667 0.0493 0.0914 (  2427 PWs)   bands (ev):

    -8.6978  -6.2212  -3.3371  -0.1512   0.9594   1.0915   2.4111   2.8265
     4.2887   5.0001   7.8196   8.1508   9.5968  10.0947

          k = 0.1667 0.0493 0.1828 (  2426 PWs)   bands (ev):

    -8.4651  -6.5772  -3.1719  -0.8343   1.0169   1.3286   2.4217   3.3354
     4.1712   4.6783   8.3286   8.6660   9.1747  10.1064

          k = 0.1667 0.0493 0.2741 (  2428 PWs)   bands (ev):

    -8.0937  -7.0787  -2.8183  -1.5901   1.1973   1.6938   2.1407   3.2649
     4.2704   4.8249   8.4534   8.9656   9.7802   9.9582

          k = 0.1667 0.0493-0.3655 (  2424 PWs)   bands (ev):

    -7.6136  -7.6136  -2.2771  -2.2771   1.5145   1.5145   2.5398   2.5398
     4.7480   4.7480   8.6588   8.6588  10.3223  10.3223

          k = 0.3334 0.0987 0.0000 (  2414 PWs)   bands (ev):

    -7.7972  -5.1308  -4.4945  -1.4136   0.5610   0.9137   2.5503   3.1296
     3.8966   4.9539   6.8732   8.0698   8.1992   8.6240

          k = 0.3334 0.0987 0.0914 (  2425 PWs)   bands (ev):

    -7.7235  -5.3449  -4.2834  -1.5181   0.3369   0.9544   2.7397   2.9231
     3.8001   4.8851   7.3539   7.8787   8.3693   8.6006

          k = 0.3334 0.0987 0.1828 (  2423 PWs)   bands (ev):

    -7.5074  -5.7574  -3.8760  -1.8255   0.0685   0.9212   2.3242   3.1637
     3.6896   4.7485   7.6128   8.2834   8.7497   9.4264

          k = 0.3334 0.0987 0.2741 (  2422 PWs)   bands (ev):

    -7.1650  -6.2379  -3.3841  -2.2934   0.0353   0.6427   2.2316   2.9463
     3.8084   4.5091   8.1314   8.8485   9.4842   9.7600

          k = 0.3334 0.0987-0.3655 (  2428 PWs)   bands (ev):

    -6.7265  -6.7265  -2.8396  -2.8396   0.2618   0.2618   2.5266   2.5266
     4.1289   4.1289   9.0783   9.0783   9.4097   9.4097

          k =-0.5002-0.1480 0.0000 (  2426 PWs)   bands (ev):

    -6.2643  -6.2643  -3.5433  -3.5433   1.0836   1.0836   3.1808   3.1808
     3.9048   3.9048   7.1954   7.1954   7.9387   7.9387

          k =-0.5002-0.1480 0.0914 (  2434 PWs)   bands (ev):

    -6.2176  -6.2176  -3.5776  -3.5776   0.9690   0.9690   2.8156   2.8156
     4.2032   4.2032   7.1560   7.1560   8.5647   8.5647

          k =-0.5002-0.1480 0.1828 (  2430 PWs)   bands (ev):

    -6.0944  -6.0944  -3.6799  -3.6799   0.7933   0.7933   2.2138   2.2138
     4.4877   4.4877   7.7141   7.7141   8.9718   8.9718

          k =-0.5002-0.1480 0.2741 (  2426 PWs)   bands (ev):

    -5.9516  -5.9516  -3.8156  -3.8156   0.7963   0.7963   1.6056   1.6056
     4.6308   4.6308   8.2538   8.2538   9.2715   9.2715

          k =-0.5002-0.1480-0.3655 (  2420 PWs)   bands (ev):

    -5.8845  -5.8845  -3.8839  -3.8839   0.9733   0.9733   1.2072   1.2072
     4.6830   4.6830   8.2160   8.2160   9.9643   9.9643

          k = 0.3334 0.0000 0.0000 (  2416 PWs)   bands (ev):

    -7.8213  -5.0656  -4.4827  -1.4610   0.5599   0.8211   2.6347   3.2303
     3.7515   4.9838   7.0006   7.8927   8.1526   8.4770

          k = 0.3334 0.0000 0.0914 (  2416 PWs)   bands (ev):

    -7.7470  -5.3036  -4.2522  -1.5540   0.3751   0.8519   2.8963   2.9071
     3.6542   4.8395   7.5096   7.8255   8.2964   8.4166

          k = 0.3334 0.0000 0.1828 (  2427 PWs)   bands (ev):

    -7.5289  -5.7403  -3.8323  -1.8345   0.1387   0.8870   2.3283   3.1414
     3.5369   4.5964   7.5423   8.6155   8.7482   9.2235

          k = 0.3334 0.0000 0.2741 (  2429 PWs)   bands (ev):

    -7.1828  -6.2378  -3.3392  -2.2753   0.1259   0.7142   2.1287   2.8550
     3.6156   4.3035   8.1233   9.2006   9.5370   9.8756

          k = 0.3334 0.0000-0.3655 (  2428 PWs)   bands (ev):

    -6.7375  -6.7375  -2.8031  -2.8031   0.3609   0.3609   2.4054   2.4054
     3.9112   3.9112   9.1725   9.1725   9.6650   9.6650

          k = 0.5002 0.0493 0.0000 (  2429 PWs)   bands (ev):

    -6.3009  -6.2256  -3.6490  -3.4363   1.0399   1.1218   3.1669   3.1990
     3.6891   4.1446   7.0719   7.2430   7.9250   8.0492

          k = 0.5002 0.0493 0.0914 (  2431 PWs)   bands (ev):

    -6.2524  -6.1809  -3.6720  -3.4828   0.9121   1.0310   2.7807   2.8151
     4.0162   4.4717   6.9446   7.2652   8.5627   8.5974

          k = 0.5002 0.0493 0.1828 (  2423 PWs)   bands (ev):

    -6.1234  -6.0640  -3.7446  -3.6159   0.7001   0.9051   2.0967   2.3106
     4.2626   4.7557   7.4217   7.8892   8.8147   9.2031

          k = 0.5002 0.0493 0.2741 (  2423 PWs)   bands (ev):

    -5.9691  -5.9336  -3.8451  -3.7862   0.6648   0.9449   1.4571   1.7669
     4.4246   4.7684   8.1490   8.4870   9.1590   9.4681

          k = 0.5002 0.0493-0.3655 (  2432 PWs)   bands (ev):

    -5.8846  -5.8846  -3.8836  -3.8836   0.8920   0.8920   1.3084   1.3084
     4.6199   4.6199   8.3807   8.3807   9.9617   9.9617

          k =-0.3334-0.1973 0.0000 (  2425 PWs)   bands (ev):

    -7.7465  -5.2608  -4.5175  -1.3143   0.5572   1.1257   2.3404   2.9437
     4.2294   4.9060   6.8348   8.0038   8.3141   8.7702

          k =-0.3334-0.1973 0.0914 (  2426 PWs)   bands (ev):

    -7.6741  -5.4320  -4.3403  -1.4429   0.2878   1.1140   2.5994   2.8045
     4.1688   4.9168   7.2387   7.8949   8.4343   8.7221

          k =-0.3334-0.1973 0.1828 (  2426 PWs)   bands (ev):

    -7.4621  -5.7951  -3.9590  -1.8063  -0.0395   0.9144   2.3951   3.1677
     4.1301   4.9443   7.5077   8.1847   8.6988   9.5340

          k =-0.3334-0.1973 0.2741 (  2416 PWs)   bands (ev):

    -7.1280  -6.2394  -3.4719  -2.3299  -0.1125   0.4993   2.4455   3.1037
     4.2973   4.8787   7.8355   8.7084   9.1897   9.5628

          k =-0.3334-0.1973-0.3655 (  2422 PWs)   bands (ev):

    -6.7040  -6.7040  -2.9125  -2.9125   0.0950   0.0950   2.7521   2.7521
     4.6037   4.6037   8.5403   8.5403   9.3779   9.3779

          k =-0.1667-0.1480 0.0000 (  2431 PWs)   bands (ev):

    -8.7319  -6.2099  -3.3605   0.3958   0.7264   1.2598   1.7365   3.0046
     4.2263   5.7585   7.3091   8.0520   9.7264  10.0815

          k =-0.1667-0.1480 0.0914 (  2434 PWs)   bands (ev):

    -8.6538  -6.3136  -3.3548  -0.1485   0.9652   1.1873   2.2789   2.8554
     4.4767   5.3734   7.5280   8.2195   9.6607  10.1101

          k =-0.1667-0.1480 0.1828 (  2428 PWs)   bands (ev):

    -8.4245  -6.6217  -3.2565  -0.9489   0.9211   1.6364   2.4674   3.2909
     4.6259   4.8256   8.0305   8.7396   9.1085  10.0794

          k =-0.1667-0.1480 0.2741 (  2425 PWs)   bands (ev):

    -8.0599  -7.0826  -2.9575  -1.7503   1.1109   1.7760   2.4974   3.7010
     4.3304   4.9469   8.5981   8.8037   9.2529   9.9186

          k =-0.1667-0.1480-0.3655 (  2422 PWs)   bands (ev):

    -7.5930  -7.5930  -2.4421  -2.4421   1.4476   1.4476   3.0459   3.0459
     4.8241   4.8241   8.7085   8.7085   9.7096   9.7096

          k = 0.0000-0.0987 0.0000 (  2431 PWs)   bands (ev):

    -9.0850  -6.4841  -3.1600   0.0096   1.3537   1.5727   2.5310   3.9066
     4.0977   5.6410   7.2131   7.5263   8.5167   9.2866

          k = 0.0000-0.0987 0.0914 (  2436 PWs)   bands (ev):

    -9.0053  -6.5918  -3.2012  -0.2497   1.2452   1.9781   2.5917   4.0522
     4.3406   5.1030   7.5584   7.7891   8.3666   9.1997

          k = 0.0000-0.0987 0.1828 (  2426 PWs)   bands (ev):

    -8.7710  -6.9122  -3.1841  -0.9572   1.4576   2.7669   2.7927   3.9086
     4.2000   5.1622   7.7816   7.9766   8.6575   9.0702

          k = 0.0000-0.0987 0.2741 (  2428 PWs)   bands (ev):

    -8.3976  -7.3904  -2.9396  -1.7566   1.9113   3.0342   3.2894   3.6646
     3.8713   5.5036   7.7503   7.9895   9.1039   9.5577

          k = 0.0000-0.0987-0.3655 (  2438 PWs)   bands (ev):

    -7.9176  -7.9176  -2.4468  -2.4468   2.5344   2.5344   3.3529   3.3529
     4.8862   4.8862   7.9587   7.9587   9.3954   9.3954

          k = 0.6669 0.0000 0.0000 (  2450 PWs)   bands (ev):

    -7.7197  -5.3259  -4.5287  -1.2621   0.5516   1.2590   2.2034   2.8578
     4.4140   4.8864   7.0936   7.5092   8.3633   8.8562

          k = 0.6669 0.0000 0.0914 (  2442 PWs)   bands (ev):

    -7.6479  -5.4780  -4.3663  -1.4032   0.2672   1.1794   2.6126   2.6722
     4.4188   4.8848   7.4631   7.5296   8.4347   8.7438

          k = 0.6669 0.0000 0.1828 (  2430 PWs)   bands (ev):

    -7.4382  -5.8158  -3.9986  -1.7958  -0.0863   0.8903   2.4658   3.1460
     4.4771   4.9410   7.3046   8.3846   8.5451   9.6096

          k = 0.6669 0.0000 0.2741 (  2431 PWs)   bands (ev):

    -7.1086  -6.2408  -3.5148  -2.3482  -0.1765   0.4322   2.5589   3.1682
     4.6425   5.0126   7.5310   8.8135   9.0928   9.5021

          k = 0.6669 0.0000-0.3655 (  2418 PWs)   bands (ev):

    -6.6925  -6.6925  -2.9488  -2.9488   0.0228   0.0228   2.8618   2.8618
     4.8704   4.8704   8.2474   8.2474   9.4233   9.4233

          k =-0.1667-0.2466 0.0000 (  2437 PWs)   bands (ev):

    -8.6838  -6.3254  -3.3457   0.6896   0.6908   1.2213   1.4442   2.9464
     4.7574   6.0298   6.9386   7.8658   9.6748  10.0990

          k =-0.1667-0.2466 0.0914 (  2434 PWs)   bands (ev):

    -8.6068  -6.4086  -3.3673  -0.1637   0.9013   1.4207   2.0977   2.8540
     4.8975   5.6968   7.2132   7.9662   9.6827  10.1892

          k =-0.1667-0.2466 0.1828 (  2441 PWs)   bands (ev):

    -8.3811  -6.6704  -3.3288  -1.0648   0.8502   1.8909   2.6823   3.1112
     5.0426   5.1382   7.7309   8.4418   9.2160  10.0806

          k =-0.1667-0.2466 0.2741 (  2429 PWs)   bands (ev):

    -8.0242  -7.0884  -3.0821  -1.9014   1.0507   1.7843   3.0128   3.9154
     4.5537   5.1457   8.3112   8.7667   8.9229   9.6597

          k =-0.1667-0.2466-0.3655 (  2426 PWs)   bands (ev):

    -7.5719  -7.5719  -2.5935  -2.5935   1.4032   1.4032   3.5808   3.5808
     4.9158   4.9158   8.5473   8.5473   9.1654   9.1654

          k = 0.0000-0.1973 0.0000 (  2447 PWs)   bands (ev):

    -9.0306  -6.6180  -3.1269   0.2957   1.1374   1.3136   2.4917   4.1639
     4.3707   6.1511   6.9641   7.4271   8.6027   9.2434

          k = 0.0000-0.1973 0.0914 (  2449 PWs)   bands (ev):

    -8.9521  -6.7022  -3.2116  -0.2213   1.2848   1.8650   2.5537   4.1103
     4.6783   5.6337   7.4012   7.5086   8.4255   9.1769

          k = 0.0000-0.1973 0.1828 (  2424 PWs)   bands (ev):

    -8.7217  -6.9686  -3.2814  -1.1147   1.8813   2.6752   2.7333   3.9456
     4.8096   5.3294   7.6528   7.9491   8.1654   9.0918

          k = 0.0000-0.1973 0.2741 (  2429 PWs)   bands (ev):

    -8.3569  -7.3971  -3.1082  -1.9640   2.5267   3.0093   3.6469   3.6759
     4.0398   5.4926   7.7711   7.8890   8.8406   9.1701

          k = 0.0000-0.1973-0.3655 (  2432 PWs)   bands (ev):

    -7.8934  -7.8934  -2.6521  -2.6521   3.2059   3.2059   3.3426   3.3426
     4.7728   4.7728   7.9546   7.9546   9.4163   9.4163

          k =-1.0003-0.0000 0.0000 (  2448 PWs)   bands (ev):

    -9.0016  -6.6853  -3.1098   0.5310   1.0381   1.0739   2.4730   4.1960
     4.8057   6.4257   6.5359   7.3841   8.6341   9.2228

          k =-1.0003-0.0000 0.0914 (  2442 PWs)   bands (ev):

    -8.9237  -6.7587  -3.2133  -0.2339   1.4399   1.6832   2.5357   4.1385
     5.0502   5.8465   7.0241   7.4766   8.4398   9.1669

          k =-1.0003-0.0000 0.1828 (  2440 PWs)   bands (ev):

    -8.6956  -6.9990  -3.3222  -1.1973   2.3387   2.3717   2.7174   3.9632
     5.1348   5.5432   7.3891   7.9003   7.9907   9.1047

          k =-1.0003-0.0000 0.2741 (  2430 PWs)   bands (ev):

    -8.3354  -7.4015  -3.1833  -2.0622   2.9974   3.0005   3.4515   3.6811
     4.4086   5.4897   7.6865   7.8575   8.5192   9.2055

          k =-1.0003-0.0000-0.3655 (  2424 PWs)   bands (ev):

    -7.8810  -7.8810  -2.7463  -2.7463   3.3376   3.3376   3.6432   3.6432
     4.6399   4.6399   7.9272   7.9272   8.9860   8.9860

     the Fermi energy is     6.4808 ev

!    total energy              =    -222.13985644 Ry
     Harris-Foulkes estimate   =    -222.13985644 Ry
     estimated scf accuracy    <          5.4E-11 Ry

     total all-electron energy =      -222.139856 Ry

     The total energy is the sum of the following terms:

     one-electron contribution =       4.05283853 Ry
     hartree contribution      =       7.76484317 Ry
     xc contribution           =     -18.08923026 Ry
     ewald contribution        =     -48.65808431 Ry
     one-center paw contrib.   =    -167.21021357 Ry
     smearing contrib. (-TS)   =      -0.00001001 Ry

     convergence has been achieved in   9 iterations

     negative rho (up, down):  3.550E-02 0.000E+00

     Forces acting on atoms (cartesian axes, Ry/au):

     atom    1 type  1   force =     0.00000000   -0.00017643   -0.00009736
     atom    2 type  1   force =    -0.00000000    0.00017643   -0.00009736
     atom    3 type  1   force =     0.00000000   -0.00017643    0.00009736
     atom    4 type  1   force =    -0.00000000    0.00017643    0.00009736

     Total force =     0.000403     Total SCF correction =     0.000019


     Computing stress (Cartesian axis) and pressure


     negative rho (up, down):  3.550E-02 0.000E+00
          total   stress  (Ry/bohr**3)                   (kbar)     P=    0.20
  -0.00000004  -0.00000000   0.00000000         -0.01     -0.00      0.00
  -0.00000000   0.00000212   0.00000000         -0.00      0.31      0.00
   0.00000000   0.00000000   0.00000196          0.00      0.00      0.29


     Writing output data file relax.save/
 
     init_run     :      2.51s CPU      2.56s WALL (       2 calls)
     electrons    :    197.92s CPU    203.40s WALL (      19 calls)
     update_pot   :      7.12s CPU      7.14s WALL (      17 calls)
     forces       :      5.16s CPU      5.20s WALL (      19 calls)
     stress       :     10.98s CPU     11.00s WALL (      19 calls)

     Called by init_run:
     wfcinit      :      1.58s CPU      1.61s WALL (       2 calls)
     potinit      :      0.32s CPU      0.33s WALL (       2 calls)
     hinit0       :      0.55s CPU      0.55s WALL (       2 calls)

     Called by electrons:
     c_bands      :    155.78s CPU    160.36s WALL (     169 calls)
     sum_band     :     29.06s CPU     29.85s WALL (     169 calls)
     v_of_rho     :      1.38s CPU      1.39s WALL (     179 calls)
     newd         :      0.63s CPU      0.63s WALL (     179 calls)
     PAW_pot      :     13.04s CPU     13.09s WALL (     196 calls)
     mix_rho      :      0.17s CPU      0.17s WALL (     169 calls)

     Called by c_bands:
     init_us_2    :      2.39s CPU      2.47s WALL (   25675 calls)
     cegterg      :    148.58s CPU    152.93s WALL (   10985 calls)

     Called by sum_band:
     sum_band:bec :      0.07s CPU      0.07s WALL (   12090 calls)
     addusdens    :      0.65s CPU      0.66s WALL (     169 calls)

     Called by *egterg:
     h_psi        :    125.81s CPU    129.53s WALL (   36906 calls)
     s_psi        :      2.21s CPU      2.29s WALL (   36906 calls)
     g_psi        :      0.43s CPU      0.44s WALL (   25791 calls)
     cdiaghg      :     10.03s CPU     10.32s WALL (   35086 calls)

     Called by h_psi:
     h_psi:pot    :    125.32s CPU    129.02s WALL (   36906 calls)
     h_psi:calbec :      3.71s CPU      3.81s WALL (   36906 calls)
     vloc_psi     :    119.13s CPU    122.65s WALL (   36906 calls)
     add_vuspsi   :      2.28s CPU      2.35s WALL (   36906 calls)

     General routines
     calbec       :      5.85s CPU      6.01s WALL (   55171 calls)
     fft          :      1.19s CPU      1.20s WALL (    2809 calls)
     ffts         :      0.07s CPU      0.07s WALL (     348 calls)
     fftw         :    129.34s CPU    133.14s WALL (  985210 calls)
     interpolate  :      0.11s CPU      0.11s WALL (     179 calls)
 
     Parallel routines
     fft_scatt_xy :     18.83s CPU     19.38s WALL (  988367 calls)
     fft_scatt_yz :     41.56s CPU     42.71s WALL (  988367 calls)
 
     PWSCF        :  3m45.82s CPU     3m51.67s WALL

 
   This run was terminated on:  16:58:28  30Jul2019            

=------------------------------------------------------------------------------=
   JOB DONE.
=------------------------------------------------------------------------------=
