{
    "directories":
        {
            "elem_template_dir": "/home/szymansk/Elem_Templates",
            "cmpd_template_dir": "/home/szymansk/Optimization_Sets/Se/Input"
        },
    "compounds": [
        {
            "formula": "SrSe",
            "lattice_type": "RS",
            "lattice_constant": 6.301,
            "phonon_frequency": [0.0,0.0,0.0,3.79,3.79,3.79],
            "band_gap": 2.266
        },
        {
            "formula": "ZnSe",
            "lattice_type": "ZB",
            "eos": [23.65043, 57.12750, 4.030]
        },
        {
            "formula": "SrTiSe3",
            "lattice_type": "per",
            "lattice_constant": 5.030
        }
    ]
}
