===== VARIABLES =====
EXE_PATH = /scr/szymansk/2019-3/qe-bin/bin/pw.x
tpp = 4
Parallel keywords = -nimage 1
MPIRUN_EXE = orterun
PATH = /scr/szymansk/2019-3/mmshare-v4.7/lib/Linux-x86_64/openmpi/bin:/scr/szymansk/2019-3/internal/bin:/scr/szymansk/2019-3/mmshare-v4.7/bin/Linux-x86_64:/scr/szymansk/gaopaw_test/lattice_testing/Examples/Si/workdir_pp.2:.:/scr/szymansk/gaopaw_test/lattice_testing/Examples/Si:/home/szymansk/bin:/scr/szymansk/dakota/bin:/scr/szymansk/atompaw-4.1.0.5/src/:/usr/lib64/qt-3.3/bin:/usr/local/bin:/usr/local/sbin:/usr/bin:/usr/sbin:/bin:/sbin
LD_LIBRARY_PATH = /scr/szymansk/2019-3/mmshare-v4.7/lib/Linux-x86_64/openmpi/lib:/scr/szymansk/2019-3/internal/lib/ssl:/scr/szymansk/2019-3/internal/lib:/scr/szymansk/2019-3/mmshare-v4.7/lib/Linux-x86_64:/scr/szymansk/2019-3/internal/lib/python3.6/site-packages:/scr/szymansk/dakota/bin:/software/lib/Linux-x86_64/ifort_2017.1.132/mkl/lib/intel64
===== END VARIABLES =====
Invoking: exe_cmd () 
{ 
    "$MPIRUN_EXE" -np $tpp "$EXE_PATH" -in $input_file "${P_KEYWORDS[@]}"
}

     Program PWSCF v.6.3MaX starts on 18Jul2019 at 10:35:38 

     This program is part of the open-source Quantum ESPRESSO suite
     for quantum simulation of materials; please cite
         "P. Giannozzi et al., J. Phys.:Condens. Matter 21 395502 (2009);
         "P. Giannozzi et al., J. Phys.:Condens. Matter 29 465901 (2017);
          URL http://www.quantum-espresso.org", 
     in publications or presentations arising from this work. More details at
     http://www.quantum-espresso.org/quote

     Parallel version (MPI), running on     4 processors

     MPI processes distributed on     1 nodes
     R & G space division:  proc/nbgrp/npool/nimage =       4
     Reading input from Si.SC.relax.in

     Current dimensions of program PWSCF are:
     Max number of different atomic species (ntypx) = 10
     Max number of k-points (npk) =  40000
     Max angular momentum in pseudopotentials (lmaxx) =  3
               file Si.GGA-PBE-paw.UPF: wavefunction(s)  Xn Xn renormalized

     Subspace diagonalization in iterative solution of the eigenvalue problem:
     a serial algorithm will be used

     Found symmetry operation: I + ( -0.5000 -0.5000 -0.5000)
     This is a supercell, fractional translations are disabled
 
     Parallelization info
     --------------------
     sticks:   dense  smooth     PW     G-vecs:    dense   smooth      PW
     Min         211     168     53                 4653     3300     581
     Max         215     169     54                 4654     3303     582
     Sum         853     673    213                18613    13205    2325
 


     bravais-lattice index     =            1
     lattice parameter (alat)  =       7.2900  a.u.
     unit-cell volume          =     387.4205 (a.u.)^3
     number of atoms/cell      =            2
     number of atomic types    =            1
     number of electrons       =         8.00
     number of Kohn-Sham states=            8
     kinetic-energy cutoff     =      40.0000  Ry
     charge density cutoff     =     200.0000  Ry
     convergence threshold     =      1.0E-08
     mixing beta               =       0.7000
     number of iterations used =            8  plain     mixing
     Exchange-correlation      = SLA PW PBX PBC ( 1  4  3  4 0 0)
     nstep                     =           50


     celldm(1)=   7.290000  celldm(2)=   0.000000  celldm(3)=   0.000000
     celldm(4)=   0.000000  celldm(5)=   0.000000  celldm(6)=   0.000000

     crystal axes: (cart. coord. in units of alat)
               a(1) = (   1.000000   0.000000   0.000000 )  
               a(2) = (   0.000000   1.000000   0.000000 )  
               a(3) = (   0.000000   0.000000   1.000000 )  

     reciprocal axes: (cart. coord. in units 2 pi/alat)
               b(1) = (  1.000000  0.000000  0.000000 )  
               b(2) = (  0.000000  1.000000  0.000000 )  
               b(3) = (  0.000000  0.000000  1.000000 )  


     PseudoPot. # 1 for Si read from file:
     ./Si.GGA-PBE-paw.UPF
     MD5 check sum: 41374bf13e57aa3ce95dd2eef56016b4
     Pseudo is Projector augmented-wave + core cor, Zval =  4.0
     Generated using ATOMPAW code
     Shape of augmentation charge: BESSEL
     Using radial grid of 2342 points,  4 beta functions with: 
                l(1) =   0
                l(2) =   0
                l(3) =   1
                l(4) =   1
     Q(r) pseudized with 0 coefficients 


     atomic species   valence    mass     pseudopotential
        Si             4.00    28.08550     Si( 1.00)

     48 Sym. Ops., with inversion, found



   Cartesian axes

     site n.     atom                  positions (alat units)
         1           Si  tau(   1) = (   0.0000000   0.0000000   0.0000000  )
         2           Si  tau(   2) = (   0.5000000   0.5000000   0.5000000  )

     number of k points=    56  Fermi-Dirac smearing, width (Ry)=  0.0150
                       cart. coord. in units 2pi/alat
        k(    1) = (   0.0000000   0.0000000   0.0000000), wk =   0.0020000
        k(    2) = (   0.0000000   0.0000000   0.1000000), wk =   0.0120000
        k(    3) = (   0.0000000   0.0000000   0.2000000), wk =   0.0120000
        k(    4) = (   0.0000000   0.0000000   0.3000000), wk =   0.0120000
        k(    5) = (   0.0000000   0.0000000   0.4000000), wk =   0.0120000
        k(    6) = (   0.0000000   0.0000000  -0.5000000), wk =   0.0060000
        k(    7) = (   0.0000000   0.1000000   0.1000000), wk =   0.0240000
        k(    8) = (   0.0000000   0.1000000   0.2000000), wk =   0.0480000
        k(    9) = (   0.0000000   0.1000000   0.3000000), wk =   0.0480000
        k(   10) = (   0.0000000   0.1000000   0.4000000), wk =   0.0480000
        k(   11) = (   0.0000000   0.1000000  -0.5000000), wk =   0.0240000
        k(   12) = (   0.0000000   0.2000000   0.2000000), wk =   0.0240000
        k(   13) = (   0.0000000   0.2000000   0.3000000), wk =   0.0480000
        k(   14) = (   0.0000000   0.2000000   0.4000000), wk =   0.0480000
        k(   15) = (   0.0000000   0.2000000  -0.5000000), wk =   0.0240000
        k(   16) = (   0.0000000   0.3000000   0.3000000), wk =   0.0240000
        k(   17) = (   0.0000000   0.3000000   0.4000000), wk =   0.0480000
        k(   18) = (   0.0000000   0.3000000  -0.5000000), wk =   0.0240000
        k(   19) = (   0.0000000   0.4000000   0.4000000), wk =   0.0240000
        k(   20) = (   0.0000000   0.4000000  -0.5000000), wk =   0.0240000
        k(   21) = (   0.0000000  -0.5000000  -0.5000000), wk =   0.0060000
        k(   22) = (   0.1000000   0.1000000   0.1000000), wk =   0.0160000
        k(   23) = (   0.1000000   0.1000000   0.2000000), wk =   0.0480000
        k(   24) = (   0.1000000   0.1000000   0.3000000), wk =   0.0480000
        k(   25) = (   0.1000000   0.1000000   0.4000000), wk =   0.0480000
        k(   26) = (   0.1000000   0.1000000  -0.5000000), wk =   0.0240000
        k(   27) = (   0.1000000   0.2000000   0.2000000), wk =   0.0480000
        k(   28) = (   0.1000000   0.2000000   0.3000000), wk =   0.0960000
        k(   29) = (   0.1000000   0.2000000   0.4000000), wk =   0.0960000
        k(   30) = (   0.1000000   0.2000000  -0.5000000), wk =   0.0480000
        k(   31) = (   0.1000000   0.3000000   0.3000000), wk =   0.0480000
        k(   32) = (   0.1000000   0.3000000   0.4000000), wk =   0.0960000
        k(   33) = (   0.1000000   0.3000000  -0.5000000), wk =   0.0480000
        k(   34) = (   0.1000000   0.4000000   0.4000000), wk =   0.0480000
        k(   35) = (   0.1000000   0.4000000  -0.5000000), wk =   0.0480000
        k(   36) = (   0.1000000  -0.5000000  -0.5000000), wk =   0.0120000
        k(   37) = (   0.2000000   0.2000000   0.2000000), wk =   0.0160000
        k(   38) = (   0.2000000   0.2000000   0.3000000), wk =   0.0480000
        k(   39) = (   0.2000000   0.2000000   0.4000000), wk =   0.0480000
        k(   40) = (   0.2000000   0.2000000  -0.5000000), wk =   0.0240000
        k(   41) = (   0.2000000   0.3000000   0.3000000), wk =   0.0480000
        k(   42) = (   0.2000000   0.3000000   0.4000000), wk =   0.0960000
        k(   43) = (   0.2000000   0.3000000  -0.5000000), wk =   0.0480000
        k(   44) = (   0.2000000   0.4000000   0.4000000), wk =   0.0480000
        k(   45) = (   0.2000000   0.4000000  -0.5000000), wk =   0.0480000
        k(   46) = (   0.2000000  -0.5000000  -0.5000000), wk =   0.0120000
        k(   47) = (   0.3000000   0.3000000   0.3000000), wk =   0.0160000
        k(   48) = (   0.3000000   0.3000000   0.4000000), wk =   0.0480000
        k(   49) = (   0.3000000   0.3000000  -0.5000000), wk =   0.0240000
        k(   50) = (   0.3000000   0.4000000   0.4000000), wk =   0.0480000
        k(   51) = (   0.3000000   0.4000000  -0.5000000), wk =   0.0480000
        k(   52) = (   0.3000000  -0.5000000  -0.5000000), wk =   0.0120000
        k(   53) = (   0.4000000   0.4000000   0.4000000), wk =   0.0160000
        k(   54) = (   0.4000000   0.4000000  -0.5000000), wk =   0.0240000
        k(   55) = (   0.4000000  -0.5000000  -0.5000000), wk =   0.0120000
        k(   56) = (  -0.5000000  -0.5000000  -0.5000000), wk =   0.0020000

     Dense  grid:    18613 G-vectors     FFT dimensions: (  36,  36,  36)

     Smooth grid:    13205 G-vectors     FFT dimensions: (  30,  30,  30)

     Estimated max dynamical RAM per process >      10.00 MB

     Estimated total dynamical RAM >      40.01 MB

     Initial potential from superposition of free atoms
     Check: negative starting charge=   -0.004763

     starting charge    7.99874, renormalised to    8.00000

     negative rho (up, down):  4.764E-03 0.000E+00
     Starting wfcs are   16 randomized atomic wfcs
     Checking if some PAW data can be deallocated... 

     total cpu time spent up to now is        1.4 secs

     Self-consistent Calculation

     iteration #  1     ecut=    40.00 Ry     beta= 0.70
     Davidson diagonalization with overlap
     ethr =  1.00E-02,  avg # of iterations =  2.0

     Threshold (ethr) on eigenvalues was too large:
     Diagonalizing with lowered threshold

     Davidson diagonalization with overlap
     ethr =  8.69E-05,  avg # of iterations =  2.9

     negative rho (up, down):  4.885E-03 0.000E+00

     total cpu time spent up to now is        2.1 secs

     total energy              =     -93.21561416 Ry
     Harris-Foulkes estimate   =     -93.21774891 Ry
     estimated scf accuracy    <       0.00704166 Ry

     iteration #  2     ecut=    40.00 Ry     beta= 0.70
     Davidson diagonalization with overlap
     ethr =  8.80E-05,  avg # of iterations =  1.0

     negative rho (up, down):  5.091E-03 0.000E+00

     total cpu time spent up to now is        2.3 secs

     total energy              =     -93.21596758 Ry
     Harris-Foulkes estimate   =     -93.21597726 Ry
     estimated scf accuracy    <       0.00022996 Ry

     iteration #  3     ecut=    40.00 Ry     beta= 0.70
     Davidson diagonalization with overlap
     ethr =  2.87E-06,  avg # of iterations =  3.3

     negative rho (up, down):  5.358E-03 0.000E+00

     total cpu time spent up to now is        2.7 secs

     total energy              =     -93.21604190 Ry
     Harris-Foulkes estimate   =     -93.21604407 Ry
     estimated scf accuracy    <       0.00000169 Ry

     iteration #  4     ecut=    40.00 Ry     beta= 0.70
     Davidson diagonalization with overlap
     ethr =  2.12E-08,  avg # of iterations =  3.5

     negative rho (up, down):  5.379E-03 0.000E+00

     total cpu time spent up to now is        3.0 secs

     total energy              =     -93.21604438 Ry
     Harris-Foulkes estimate   =     -93.21604449 Ry
     estimated scf accuracy    <       0.00000043 Ry

     iteration #  5     ecut=    40.00 Ry     beta= 0.70
     Davidson diagonalization with overlap
     ethr =  5.41E-09,  avg # of iterations =  1.7

     negative rho (up, down):  5.379E-03 0.000E+00

     total cpu time spent up to now is        3.3 secs

     End of self-consistent calculation

          k = 0.0000 0.0000 0.0000 (  1647 PWs)   bands (ev):

    -6.0570  -0.2522   3.2253   3.2253   3.2253   7.3983   7.3983   8.5156

          k = 0.0000 0.0000 0.1000 (  1683 PWs)   bands (ev):

    -5.9673  -0.4880   3.1032   3.3085   3.3085   7.4964   8.0079   8.1561

          k = 0.0000 0.0000 0.2000 (  1679 PWs)   bands (ev):

    -5.6992  -1.1483   3.0440   3.5569   3.5569   7.3100   7.6796   7.6796

          k = 0.0000 0.0000 0.3000 (  1667 PWs)   bands (ev):

    -5.2568  -2.0526   3.2767   3.9659   3.9659   6.3101   6.8733   6.8734

          k = 0.0000 0.0000 0.4000 (  1654 PWs)   bands (ev):

    -4.6482  -3.0041   3.7724   4.5261   4.5262   5.3364   6.0217   6.0217

          k = 0.0000 0.0000-0.5000 (  1654 PWs)   bands (ev):

    -3.8880  -3.8878   4.4738   4.4739   5.2212   5.2212   5.2214   5.2214

          k = 0.0000 0.1000 0.1000 (  1665 PWs)   bands (ev):

    -5.8778  -0.6568   2.6761   3.3913   3.6611   7.5080   7.8692   8.1075

          k = 0.0000 0.1000 0.2000 (  1658 PWs)   bands (ev):

    -5.6107  -1.1959   2.3933   3.6380   4.0512   6.5289   7.5998   8.1101

          k = 0.0000 0.1000 0.3000 (  1659 PWs)   bands (ev):

    -5.1704  -2.0248   2.5140   4.0434   4.5203   5.4848   6.8689   7.4298

          k = 0.0000 0.1000 0.4000 (  1662 PWs)   bands (ev):

    -4.5654  -2.9430   2.9608   4.4995   4.5974   5.1109   6.0594   6.6184

          k = 0.0000 0.1000-0.5000 (  1658 PWs)   bands (ev):

    -3.8123  -3.8121   3.6418   3.6418   5.2809   5.2811   5.8210   5.8210

          k = 0.0000 0.2000 0.2000 (  1662 PWs)   bands (ev):

    -5.3470  -1.4299   1.7202   3.8790   4.5802   5.4343   7.3245   8.2268

          k = 0.0000 0.2000 0.3000 (  1655 PWs)   bands (ev):

    -4.9133  -1.9911   1.5383   4.2730   4.3323   5.1177   6.8183   7.8739

          k = 0.0000 0.2000 0.4000 (  1647 PWs)   bands (ev):

    -4.3210  -2.7790   1.8442   3.3245   4.8057   5.7392   6.1515   7.2075

          k = 0.0000 0.2000-0.5000 (  1644 PWs)   bands (ev):

    -3.5931  -3.5929   2.4743   2.4743   5.4493   5.4495   6.4521   6.4522

          k = 0.0000 0.3000 0.3000 (  1638 PWs)   bands (ev):

    -4.4935  -2.1244   0.9150   3.2030   4.6435   5.6866   6.6261   7.9654

          k = 0.0000 0.3000 0.4000 (  1641 PWs)   bands (ev):

    -3.9293  -2.5921   0.8994   2.1974   5.1313   6.2279   6.3110   7.6186

          k = 0.0000 0.3000-0.5000 (  1658 PWs)   bands (ev):

    -3.2621  -3.2619   1.3925   1.3925   5.6887   5.6889   6.9890   6.9890

          k = 0.0000 0.4000 0.4000 (  1648 PWs)   bands (ev):

    -3.4268  -2.5779   0.4059   1.2360   5.5306   6.1739   6.8998   7.7567

          k = 0.0000 0.4000-0.5000 (  1664 PWs)   bands (ev):

    -2.9076  -2.9074   0.5668   0.5668   5.9188   5.9191   7.4564   7.4564

          k = 0.0000-0.5000-0.5000 (  1652 PWs)   bands (ev):

    -2.7339  -2.7337   0.2331   0.2331   6.0190   6.0192   7.6782   7.6782

          k = 0.1000 0.1000 0.1000 (  1668 PWs)   bands (ev):

    -5.7887  -0.7864   2.7622   2.7622   4.2161   7.0733   8.1539   8.1539

          k = 0.1000 0.1000 0.2000 (  1668 PWs)   bands (ev):

    -5.5226  -1.2369   2.3011   3.0194   4.7385   6.1782   7.4392   8.0560

          k = 0.1000 0.1000 0.3000 (  1656 PWs)   bands (ev):

    -5.0843  -1.9972   2.3133   3.4438   5.1676   5.2502   6.5337   7.7055

          k = 0.1000 0.1000 0.4000 (  1654 PWs)   bands (ev):

    -4.4830  -2.8825   2.7069   4.0279   4.2008   5.6092   5.8275   7.1358

          k = 0.1000 0.1000-0.5000 (  1638 PWs)   bands (ev):

    -3.7371  -3.7369   3.3607   3.3607   4.7580   4.7582   6.4734   6.4735

          k = 0.1000 0.2000 0.2000 (  1657 PWs)   bands (ev):

    -5.2599  -1.4440   1.8093   3.0019   5.2993   5.3931   7.1071   7.8161

          k = 0.1000 0.2000 0.3000 (  1654 PWs)   bands (ev):

    -4.8283  -1.9628   1.5954   3.3843   4.2718   5.9519   6.3849   7.6801

          k = 0.1000 0.2000 0.4000 (  1662 PWs)   bands (ev):

    -4.2399  -2.7205   1.8649   3.2976   3.9558   5.5119   6.5046   7.4615

          k = 0.1000 0.2000-0.5000 (  1646 PWs)   bands (ev):

    -3.5195  -3.5193   2.4701   2.4701   4.6773   4.6775   7.0401   7.0402

          k = 0.1000 0.3000 0.3000 (  1659 PWs)   bands (ev):

    -4.4108  -2.0872   1.0057   3.2168   3.7294   6.2068   6.4986   7.4210

          k = 0.1000 0.3000 0.4000 (  1650 PWs)   bands (ev):

    -3.8508  -2.5362   0.9784   2.2409   4.2684   5.6538   6.9548   7.3493

          k = 0.1000 0.3000-0.5000 (  1650 PWs)   bands (ev):

    -3.1916  -3.1913   1.4542   1.4542   4.9377   4.9379   7.2602   7.2603

          k = 0.1000 0.4000 0.4000 (  1652 PWs)   bands (ev):

    -3.3531  -2.5207   0.4973   1.3054   4.7513   5.6668   7.1224   7.1808

          k = 0.1000 0.4000-0.5000 (  1658 PWs)   bands (ev):

    -2.8419  -2.8417   0.6510   0.6510   5.2920   5.2922   7.1540   7.1540

          k = 0.1000-0.5000-0.5000 (  1648 PWs)   bands (ev):

    -2.6714  -2.6712   0.3247   0.3247   5.4873   5.4875   7.0131   7.0131

          k = 0.2000 0.2000 0.2000 (  1650 PWs)   bands (ev):

    -5.0006  -1.5538   2.0757   2.0757   4.7734   6.2082   6.8922   6.8922

          k = 0.2000 0.2000 0.3000 (  1653 PWs)   bands (ev):

    -4.5760  -1.9200   1.6317   2.5167   3.9255   5.8331   6.7791   6.9765

          k = 0.2000 0.2000 0.4000 (  1664 PWs)   bands (ev):

    -4.0010  -2.5643   1.7513   3.0358   3.1272   4.8108   7.1576   7.1843

          k = 0.2000 0.2000-0.5000 (  1654 PWs)   bands (ev):

    -3.3072  -3.3069   2.2718   2.2718   3.8976   3.8977   7.2967   7.2968

          k = 0.2000 0.3000 0.3000 (  1653 PWs)   bands (ev):

    -4.1661  -2.0063   1.2769   2.5776   3.1721   5.4866   6.3318   7.1944

          k = 0.2000 0.3000 0.4000 (  1650 PWs)   bands (ev):

    -3.6205  -2.3866   1.1973   2.3169   3.1152   4.7025   6.4578   7.1888

          k = 0.2000 0.3000-0.5000 (  1664 PWs)   bands (ev):

    -2.9894  -2.9891   1.6021   1.6022   3.8477   3.8479   6.8612   6.8613

          k = 0.2000 0.4000 0.4000 (  1647 PWs)   bands (ev):

    -3.1389  -2.3639   0.7709   1.4955   3.5730   4.7010   5.9424   6.7454

          k = 0.2000 0.4000-0.5000 (  1648 PWs)   bands (ev):

    -2.6551  -2.6548   0.8980   0.8980   4.1972   4.1973   6.1871   6.1872

          k = 0.2000-0.5000-0.5000 (  1656 PWs)   bands (ev):

    -2.4948  -2.4946   0.5991   0.5991   4.4608   4.4610   5.8053   5.8053

          k = 0.3000 0.3000 0.3000 (  1643 PWs)   bands (ev):

    -3.7720  -1.9911   1.7269   1.7269   2.8232   5.1730   5.1730   7.1572

          k = 0.3000 0.3000 0.4000 (  1663 PWs)   bands (ev):

    -3.2579  -2.2117   1.4012   2.1944   2.3517   4.0929   5.4164   6.6202

          k = 0.3000 0.3000-0.5000 (  1662 PWs)   bands (ev):

    -2.6909  -2.6907   1.6271   1.6271   3.1444   3.1446   5.9643   5.9643

          k = 0.3000 0.4000 0.4000 (  1661 PWs)   bands (ev):

    -2.8101  -2.1613   1.2252   1.7178   2.5451   3.8760   4.7341   5.8060

          k = 0.3000 0.4000-0.5000 (  1650 PWs)   bands (ev):

    -2.3850  -2.3847   1.2780   1.2780   3.2105   3.2106   5.0687   5.0687

          k = 0.3000-0.5000-0.5000 (  1656 PWs)   bands (ev):

    -2.2427  -2.2425   1.0546   1.0546   3.4751   3.4752   4.5822   4.5822

          k = 0.4000 0.4000 0.4000 (  1652 PWs)   bands (ev):

    -2.4282  -2.0300   1.7463   1.8569   1.8569   3.6259   3.6259   4.8483

          k = 0.4000 0.4000-0.5000 (  1646 PWs)   bands (ev):

    -2.1181  -2.1178   1.6384   1.6384   2.6604   2.6605   4.0559   4.0559

          k = 0.4000-0.5000-0.5000 (  1648 PWs)   bands (ev):

    -1.9987  -1.9984   1.6884   1.6884   2.7619   2.7621   3.4656   3.4656

          k =-0.5000-0.5000-0.5000 (  1640 PWs)   bands (ev):

    -1.8917  -1.8914   2.4951   2.4951   2.4951   2.4952   2.4952   2.4952

     the Fermi energy is     3.3978 ev

!    total energy              =     -93.21604443 Ry
     Harris-Foulkes estimate   =     -93.21604443 Ry
     estimated scf accuracy    <          5.3E-09 Ry

     total all-electron energy =       -93.216044 Ry

     The total energy is the sum of the following terms:

     one-electron contribution =       5.09212405 Ry
     hartree contribution      =       0.46105161 Ry
     xc contribution           =      -5.01961882 Ry
     ewald contribution        =     -15.97468733 Ry
     one-center paw contrib.   =     -77.75941028 Ry
     smearing contrib. (-TS)   =      -0.01550366 Ry

     convergence has been achieved in   5 iterations

     negative rho (up, down):  5.379E-03 0.000E+00

     Forces acting on atoms (cartesian axes, Ry/au):

     atom    1 type  1   force =     0.00000000    0.00000000    0.00000000
     atom    2 type  1   force =     0.00000000   -0.00000000    0.00000000

     Total force =     0.000000     Total SCF correction =     0.000000


     Computing stress (Cartesian axis) and pressure


     negative rho (up, down):  5.379E-03 0.000E+00
          total   stress  (Ry/bohr**3)                   (kbar)     P= -138.47
  -0.00094130   0.00000000   0.00000000       -138.47      0.00      0.00
   0.00000000  -0.00094130   0.00000000          0.00   -138.47      0.00
   0.00000000   0.00000000  -0.00094130          0.00      0.00   -138.47


     BFGS Geometry Optimization

     number of scf cycles    =   1
     number of bfgs steps    =   0

     enthalpy new            =     -93.2160444271 Ry

     new trust radius        =       0.0926378331 bohr
     new conv_thr            =       0.0000000100 Ry

     new unit-cell volume =    360.70822 a.u.^3 (    53.45144 Ang^3 )
     density =      1.74503 g/cm^3

CELL_PARAMETERS (alat=  7.29000000)
   0.976467552   0.000000000   0.000000000
   0.000000000   0.976467552   0.000000000
   0.000000000   0.000000000   0.976467552

ATOMIC_POSITIONS (crystal)
Si       0.000000000   0.000000000   0.000000000    0   0   0
Si       0.500000000   0.500000000   0.500000000    0   0   0



     Writing output data file relax.save/
     Check: negative starting charge=   -0.004763
     NEW-OLD atomic charge density approx. for the potential
     Check: negative starting charge=   -0.004570

     negative rho (up, down):  5.104E-03 0.000E+00
     extrapolated charge    7.40765, renormalised to    8.00000

     total cpu time spent up to now is        4.3 secs

     Self-consistent Calculation

     iteration #  1     ecut=    40.00 Ry     beta= 0.70
     Davidson diagonalization with overlap
     ethr =  1.00E-06,  avg # of iterations =  5.1

     negative rho (up, down):  5.167E-03 0.000E+00

     total cpu time spent up to now is        4.9 secs

     total energy              =     -93.24073169 Ry
     Harris-Foulkes estimate   =     -92.82111048 Ry
     estimated scf accuracy    <       0.00107824 Ry

     iteration #  2     ecut=    40.00 Ry     beta= 0.70
     Davidson diagonalization with overlap
     ethr =  1.35E-05,  avg # of iterations =  2.1

     negative rho (up, down):  5.015E-03 0.000E+00

     total cpu time spent up to now is        5.2 secs

     total energy              =     -93.24171300 Ry
     Harris-Foulkes estimate   =     -93.24184991 Ry
     estimated scf accuracy    <       0.00016923 Ry

     iteration #  3     ecut=    40.00 Ry     beta= 0.70
     Davidson diagonalization with overlap
     ethr =  2.12E-06,  avg # of iterations =  1.9

     negative rho (up, down):  5.034E-03 0.000E+00

     total cpu time spent up to now is        5.5 secs

     total energy              =     -93.24171465 Ry
     Harris-Foulkes estimate   =     -93.24173113 Ry
     estimated scf accuracy    <       0.00001898 Ry

     iteration #  4     ecut=    40.00 Ry     beta= 0.70
     Davidson diagonalization with overlap
     ethr =  2.37E-07,  avg # of iterations =  2.9

     negative rho (up, down):  5.112E-03 0.000E+00

     total cpu time spent up to now is        5.9 secs

     total energy              =     -93.24172370 Ry
     Harris-Foulkes estimate   =     -93.24172358 Ry
     estimated scf accuracy    <       0.00000365 Ry

     iteration #  5     ecut=    40.00 Ry     beta= 0.70
     Davidson diagonalization with overlap
     ethr =  4.57E-08,  avg # of iterations =  1.4

     negative rho (up, down):  5.207E-03 0.000E+00

     total cpu time spent up to now is        6.2 secs

     total energy              =     -93.24172373 Ry
     Harris-Foulkes estimate   =     -93.24172390 Ry
     estimated scf accuracy    <       0.00000213 Ry

     iteration #  6     ecut=    40.00 Ry     beta= 0.70
     Davidson diagonalization with overlap
     ethr =  2.66E-08,  avg # of iterations =  1.3

     negative rho (up, down):  5.305E-03 0.000E+00

     total cpu time spent up to now is        6.4 secs

     total energy              =     -93.24172333 Ry
     Harris-Foulkes estimate   =     -93.24172390 Ry
     estimated scf accuracy    <       0.00000068 Ry

     iteration #  7     ecut=    40.00 Ry     beta= 0.70
     Davidson diagonalization with overlap
     ethr =  8.54E-09,  avg # of iterations =  3.0

     negative rho (up, down):  5.302E-03 0.000E+00

     total cpu time spent up to now is        6.7 secs

     End of self-consistent calculation

          k = 0.0000 0.0000 0.0000 (  1647 PWs)   bands (ev):

    -5.8603   0.6604   3.7642   3.7642   3.7642   7.8571   7.8571   9.5615

          k = 0.0000 0.0000 0.1024 (  1683 PWs)   bands (ev):

    -5.7643   0.3593   3.6576   3.8528   3.8528   7.9602   8.5296   9.1845

          k = 0.0000 0.0000 0.2048 (  1679 PWs)   bands (ev):

    -5.4775  -0.4495   3.6643   4.1172   4.1172   8.2960   8.5985   8.5986

          k = 0.0000 0.0000 0.3072 (  1667 PWs)   bands (ev):

    -5.0033  -1.4970   3.9733   4.5533   4.5533   7.2431   7.6986   7.6986

          k = 0.0000 0.0000 0.4096 (  1654 PWs)   bands (ev):

    -4.3485  -2.5589   4.5342   5.1525   5.1525   6.2134   6.7656   6.7656

          k = 0.0000 0.0000-0.5120 (  1654 PWs)   bands (ev):

    -3.5258  -3.5258   5.2943   5.2943   5.8993   5.8993   5.8993   5.8993

          k = 0.0000 0.1024 0.1024 (  1665 PWs)   bands (ev):

    -5.6686   0.1594   3.1500   3.9409   4.2788   8.3729   8.4663   9.0907

          k = 0.0000 0.1024 0.2048 (  1658 PWs)   bands (ev):

    -5.3827  -0.4899   2.8745   4.2037   4.7097   7.4111   8.5162   9.0996

          k = 0.0000 0.1024 0.3072 (  1659 PWs)   bands (ev):

    -4.9102  -1.4568   3.0597   4.6366   5.2137   6.2931   7.6998   8.3481

          k = 0.0000 0.1024 0.4096 (  1662 PWs)   bands (ev):

    -4.2586  -2.4877   3.5730   5.2299   5.2391   5.8454   6.8104   7.4651

          k = 0.0000 0.1024-0.5120 (  1658 PWs)   bands (ev):

    -3.4418  -3.4418   4.3171   4.3171   5.9657   5.9657   6.6061   6.6061

          k = 0.0000 0.2048 0.2048 (  1662 PWs)   bands (ev):

    -5.0995  -0.7374   2.1120   4.4613   5.2806   6.2254   8.2202   9.2217

          k = 0.0000 0.2048 0.3072 (  1655 PWs)   bands (ev):

    -4.6327  -1.3907   1.9516   4.8836   5.0391   5.8495   7.6600   8.8235

          k = 0.0000 0.2048 0.4096 (  1647 PWs)   bands (ev):

    -3.9920  -2.2926   2.3286   3.9541   5.4567   6.5094   6.9222   8.0893

          k = 0.0000 0.2048-0.5120 (  1644 PWs)   bands (ev):

    -3.1971  -3.1971   3.0312   3.0312   6.1540   6.1540   7.2721   7.2721

          k = 0.0000 0.3072 0.3072 (  1638 PWs)   bands (ev):

    -4.1778  -1.5139   1.2507   3.8183   5.2836   6.4454   7.4619   8.9171

          k = 0.0000 0.3072 0.4096 (  1641 PWs)   bands (ev):

    -3.5613  -2.0555   1.2687   2.7284   5.8137   7.0231   7.1062   8.5257

          k = 0.0000 0.3072-0.5120 (  1658 PWs)   bands (ev):

    -2.8205  -2.8205   1.8415   1.8415   6.4254   6.4254   7.8344   7.8344

          k = 0.0000 0.4096 0.4096 (  1648 PWs)   bands (ev):

    -2.9997  -2.0133   0.7091   1.6734   6.2562   6.9760   7.7314   8.6764

          k = 0.0000 0.4096-0.5120 (  1664 PWs)   bands (ev):

    -2.4011  -2.4011   0.9146   0.9146   6.6920   6.6920   8.3382   8.3382

          k = 0.0000-0.5120-0.5120 (  1652 PWs)   bands (ev):

    -2.1841  -2.1841   0.5257   0.5257   6.8104   6.8104   8.5864   8.5864

          k = 0.1024 0.1024 0.1024 (  1668 PWs)   bands (ev):

    -5.5732   0.0115   3.2415   3.2415   4.8966   8.0055   9.1329   9.1329

          k = 0.1024 0.1024 0.2048 (  1668 PWs)   bands (ev):

    -5.2881  -0.5249   2.7680   3.5150   5.4658   7.0478   8.3110   9.0303

          k = 0.1024 0.1024 0.3072 (  1656 PWs)   bands (ev):

    -4.8173  -1.4173   2.8415   3.9670   5.9664   6.0123   7.3019   8.6567

          k = 0.1024 0.1024 0.4096 (  1654 PWs)   bands (ev):

    -4.1689  -2.4172   3.3054   4.5907   4.9309   6.2922   6.6288   8.0390

          k = 0.1024 0.1024-0.5120 (  1638 PWs)   bands (ev):

    -3.3583  -3.3583   4.0251   4.0251   5.3735   5.3735   7.3225   7.3225

          k = 0.1024 0.2048 0.2048 (  1657 PWs)   bands (ev):

    -5.0059  -0.7451   2.2064   3.5026   6.1005   6.1737   7.9477   8.7286

          k = 0.1024 0.2048 0.3072 (  1654 PWs)   bands (ev):

    -4.5409  -1.3520   2.0129   3.9132   4.9907   6.7665   7.1499   8.5915

          k = 0.1024 0.2048 0.4096 (  1662 PWs)   bands (ev):

    -3.9034  -2.2241   2.3558   3.9383   4.5237   6.1969   7.3558   8.3786

          k = 0.1024 0.2048-0.5120 (  1646 PWs)   bands (ev):

    -3.1150  -3.1150   3.0363   3.0363   5.2968   5.2969   7.9312   7.9312

          k = 0.1024 0.3072 0.3072 (  1659 PWs)   bands (ev):

    -4.0879  -1.4677   1.3464   3.8427   4.2900   6.9794   7.3440   8.2659

          k = 0.1024 0.3072 0.4096 (  1650 PWs)   bands (ev):

    -3.4750  -1.9901   1.3527   2.7802   4.8702   6.3737   7.8291   8.2075

          k = 0.1024 0.3072-0.5120 (  1650 PWs)   bands (ev):

    -2.7412  -2.7412   1.9096   1.9096   5.5928   5.5928   8.1458   8.1458

          k = 0.1024 0.4096 0.4096 (  1652 PWs)   bands (ev):

    -2.9176  -1.9475   0.8056   1.7490   5.3971   6.4079   7.9224   8.0542

          k = 0.1024 0.4096-0.5120 (  1658 PWs)   bands (ev):

    -2.3265  -2.3265   1.0038   1.0038   5.9925   5.9925   7.9834   7.9834

          k = 0.1024-0.5120-0.5120 (  1648 PWs)   bands (ev):

    -2.1132  -2.1132   0.6224   0.6224   6.2187   6.2187   7.7980   7.7980

          k = 0.2048 0.2048 0.2048 (  1650 PWs)   bands (ev):

    -4.7266  -0.8549   2.4887   2.4887   5.5604   7.0674   7.6755   7.6755

          k = 0.2048 0.2048 0.3072 (  1653 PWs)   bands (ev):

    -4.2675  -1.2830   2.0439   2.9565   4.6465   6.5104   7.6772   7.7739

          k = 0.2048 0.2048 0.4096 (  1664 PWs)   bands (ev):

    -3.6415  -2.0372   2.2353   3.6054   3.6793   5.4052   8.0296   8.0719

          k = 0.2048 0.2048-0.5120 (  1654 PWs)   bands (ev):

    -2.8763  -2.8763   2.8370   2.8370   4.4267   4.4267   8.1928   8.1928

          k = 0.2048 0.3072 0.3072 (  1653 PWs)   bands (ev):

    -3.8211  -1.3629   1.6333   3.0338   3.8244   6.1522   7.0430   8.1123

          k = 0.2048 0.3072 0.4096 (  1650 PWs)   bands (ev):

    -3.2206  -1.8120   1.5856   2.8801   3.6108   5.3098   7.1947   8.0649

          k = 0.2048 0.3072-0.5120 (  1664 PWs)   bands (ev):

    -2.5119  -2.5119   2.0758   2.0758   4.3933   4.3933   7.6632   7.6632

          k = 0.2048 0.4096 0.4096 (  1647 PWs)   bands (ev):

    -2.6776  -1.7649   1.0945   1.9576   4.1141   5.3397   6.6109   7.5327

          k = 0.2048 0.4096-0.5120 (  1648 PWs)   bands (ev):

    -2.1128  -2.1128   1.2657   1.2657   4.7922   4.7922   6.8947   6.8947

          k = 0.2048-0.5120-0.5120 (  1656 PWs)   bands (ev):

    -1.9111  -1.9111   0.9120   0.9120   5.0941   5.0941   6.4597   6.4597

          k = 0.3072 0.3072 0.3072 (  1643 PWs)   bands (ev):

    -3.3882  -1.3309   2.1094   2.1094   3.4662   5.7831   5.7831   8.0247

          k = 0.3072 0.3072 0.4096 (  1663 PWs)   bands (ev):

    -2.8153  -1.5949   1.7938   2.7620   2.7714   4.6241   6.0530   7.3936

          k = 0.3072 0.3072-0.5120 (  1662 PWs)   bands (ev):

    -2.1662  -2.1662   2.1017   2.1017   3.6132   3.6133   6.6593   6.6593

          k = 0.3072 0.4096 0.4096 (  1661 PWs)   bands (ev):

    -2.3033  -1.5231   1.5746   2.2059   2.9924   4.4162   5.3052   6.4878

          k = 0.3072 0.4096-0.5120 (  1650 PWs)   bands (ev):

    -1.7973  -1.7973   1.6691   1.6691   3.7075   3.7075   5.6790   5.6790

          k = 0.3072-0.5120-0.5120 (  1656 PWs)   bands (ev):

    -1.6173  -1.6173   1.3931   1.3931   4.0139   4.0139   5.1407   5.1407

          k = 0.4096 0.4096 0.4096 (  1652 PWs)   bands (ev):

    -1.8555  -1.3613   2.2197   2.2428   2.2428   4.1208   4.1208   5.4476

          k = 0.4096 0.4096-0.5120 (  1646 PWs)   bands (ev):

    -1.4742  -1.4742   2.0412   2.0412   3.0945   3.0945   4.5895   4.5895

          k = 0.4096-0.5120-0.5120 (  1648 PWs)   bands (ev):

    -1.3241  -1.3241   2.0633   2.0633   3.2204   3.2204   3.9487   3.9487

          k =-0.5120-0.5120-0.5120 (  1640 PWs)   bands (ev):

    -1.1917  -1.1917   2.9178   2.9178   2.9178   2.9178   2.9178   2.9178

     the Fermi energy is     3.9657 ev

!    total energy              =     -93.24172375 Ry
     Harris-Foulkes estimate   =     -93.24172376 Ry
     estimated scf accuracy    <          2.9E-09 Ry

     total all-electron energy =       -93.241724 Ry

     The total energy is the sum of the following terms:

     one-electron contribution =       5.56778909 Ry
     hartree contribution      =       0.39490264 Ry
     xc contribution           =      -5.07023562 Ry
     ewald contribution        =     -16.35967040 Ry
     one-center paw contrib.   =     -77.75972169 Ry
     smearing contrib. (-TS)   =      -0.01478778 Ry

     convergence has been achieved in   7 iterations

     negative rho (up, down):  5.302E-03 0.000E+00

     Forces acting on atoms (cartesian axes, Ry/au):

     atom    1 type  1   force =     0.00000000    0.00000000    0.00000000
     atom    2 type  1   force =     0.00000000    0.00000000    0.00000000

     Total force =     0.000000     Total SCF correction =     0.000000


     Computing stress (Cartesian axis) and pressure


     negative rho (up, down):  5.302E-03 0.000E+00
          total   stress  (Ry/bohr**3)                   (kbar)     P= -144.23
  -0.00098044   0.00000000   0.00000000       -144.23      0.00      0.00
   0.00000000  -0.00098044   0.00000000          0.00   -144.23      0.00
   0.00000000   0.00000000  -0.00098044          0.00      0.00   -144.23


     number of scf cycles    =   2
     number of bfgs steps    =   1

     enthalpy old            =     -93.2160444271 Ry
     enthalpy new            =     -93.2417237550 Ry

     CASE: enthalpy_new < enthalpy_old


     WARNING: bfgs curvature condition failed, Theta= 0.806
     new trust radius        =       0.1373120196 bohr
     new conv_thr            =            1.0E-10 Ry

     new unit-cell volume =    322.98716 a.u.^3 (    47.86176 Ang^3 )
     density =      1.94882 g/cm^3

CELL_PARAMETERS (alat=  7.29000000)
   0.941168880   0.000000000   0.000000000
   0.000000000   0.941168880   0.000000000
   0.000000000   0.000000000   0.941168880

ATOMIC_POSITIONS (crystal)
Si       0.000000000   0.000000000   0.000000000    0   0   0
Si       0.500000000   0.500000000   0.500000000    0   0   0



     Writing output data file relax.save/
     Check: negative starting charge=   -0.004570
     NEW-OLD atomic charge density approx. for the potential
     Check: negative starting charge=   -0.004297

     negative rho (up, down):  4.795E-03 0.000E+00
     extrapolated charge    7.06584, renormalised to    8.00000

     total cpu time spent up to now is        7.5 secs

     Self-consistent Calculation

     iteration #  1     ecut=    40.00 Ry     beta= 0.70
     Davidson diagonalization with overlap
     ethr =  1.00E-06,  avg # of iterations =  6.2

     negative rho (up, down):  4.854E-03 0.000E+00

     total cpu time spent up to now is        8.0 secs

     total energy              =     -93.27767546 Ry
     Harris-Foulkes estimate   =     -92.58624403 Ry
     estimated scf accuracy    <       0.00262131 Ry

     iteration #  2     ecut=    40.00 Ry     beta= 0.70
     Davidson diagonalization with overlap
     ethr =  3.28E-05,  avg # of iterations =  2.0

     negative rho (up, down):  4.634E-03 0.000E+00

     total cpu time spent up to now is        8.3 secs

     total energy              =     -93.27944135 Ry
     Harris-Foulkes estimate   =     -93.27969034 Ry
     estimated scf accuracy    <       0.00020679 Ry

     iteration #  3     ecut=    40.00 Ry     beta= 0.70
     Davidson diagonalization with overlap
     ethr =  2.58E-06,  avg # of iterations =  3.2

     negative rho (up, down):  4.776E-03 0.000E+00

     total cpu time spent up to now is        8.6 secs

     total energy              =     -93.27948999 Ry
     Harris-Foulkes estimate   =     -93.27949961 Ry
     estimated scf accuracy    <       0.00001608 Ry

     iteration #  4     ecut=    40.00 Ry     beta= 0.70
     Davidson diagonalization with overlap
     ethr =  2.01E-07,  avg # of iterations =  1.8

     negative rho (up, down):  5.041E-03 0.000E+00

     total cpu time spent up to now is        8.8 secs

     total energy              =     -93.27948728 Ry
     Harris-Foulkes estimate   =     -93.27949163 Ry
     estimated scf accuracy    <       0.00000417 Ry

     iteration #  5     ecut=    40.00 Ry     beta= 0.70
     Davidson diagonalization with overlap
     ethr =  5.21E-08,  avg # of iterations =  3.2

     negative rho (up, down):  5.056E-03 0.000E+00

     total cpu time spent up to now is        9.1 secs

     total energy              =     -93.27949206 Ry
     Harris-Foulkes estimate   =     -93.27949254 Ry
     estimated scf accuracy    <       0.00000004 Ry

     iteration #  6     ecut=    40.00 Ry     beta= 0.70
     Davidson diagonalization with overlap
     ethr =  4.92E-10,  avg # of iterations =  4.3

     negative rho (up, down):  5.143E-03 0.000E+00

     total cpu time spent up to now is        9.5 secs

     total energy              =     -93.27949225 Ry
     Harris-Foulkes estimate   =     -93.27949213 Ry
     estimated scf accuracy    <       0.00000006 Ry

     iteration #  7     ecut=    40.00 Ry     beta= 0.70
     Davidson diagonalization with overlap
     ethr =  4.92E-10,  avg # of iterations =  3.0

     negative rho (up, down):  5.139E-03 0.000E+00

     total cpu time spent up to now is        9.8 secs

     total energy              =     -93.27949227 Ry
     Harris-Foulkes estimate   =     -93.27949227 Ry
     estimated scf accuracy    <          2.1E-10 Ry

     iteration #  8     ecut=    40.00 Ry     beta= 0.70
     Davidson diagonalization with overlap
     ethr =  2.64E-12,  avg # of iterations =  2.6

     negative rho (up, down):  5.134E-03 0.000E+00

     total cpu time spent up to now is       10.1 secs

     total energy              =     -93.27949227 Ry
     Harris-Foulkes estimate   =     -93.27949227 Ry
     estimated scf accuracy    <          1.6E-10 Ry

     iteration #  9     ecut=    40.00 Ry     beta= 0.70
     Davidson diagonalization with overlap
     ethr =  2.03E-12,  avg # of iterations =  1.1

     negative rho (up, down):  5.135E-03 0.000E+00

     total cpu time spent up to now is       10.3 secs

     End of self-consistent calculation

          k = 0.0000 0.0000 0.0000 (  1647 PWs)   bands (ev):

    -5.5411   2.2084   4.6681   4.6681   4.6681   8.6185   8.6185  11.3268

          k = 0.0000 0.0000 0.1063 (  1683 PWs)   bands (ev):

    -5.4354   1.7549   4.6234   4.7652   4.7652   8.7296   9.4027  10.9206

          k = 0.0000 0.0000 0.2125 (  1679 PWs)   bands (ev):

    -5.1191   0.6600   4.7724   5.0553   5.0553   9.0629   9.9631  10.1257

          k = 0.0000 0.0000 0.3188 (  1667 PWs)   bands (ev):

    -4.5950  -0.6215   5.2022   5.5348   5.5348   8.8266   9.0655   9.0655

          k = 0.0000 0.0000 0.4250 (  1654 PWs)   bands (ev):

    -3.8684  -1.8542   5.8586   6.1963   6.1963   7.7104   7.9990   7.9990

          k = 0.0000 0.0000-0.5313 (  1654 PWs)   bands (ev):

    -2.9488  -2.9488   6.7054   6.7054   7.0262   7.0262   7.0262   7.0262

          k = 0.0000 0.1063 0.1063 (  1665 PWs)   bands (ev):

    -5.3299   1.5029   3.9394   4.8618   5.3499   9.2157  10.0706  10.7367

          k = 0.0000 0.1063 0.2125 (  1658 PWs)   bands (ev):

    -5.0143   0.6422   3.6960   5.1506   5.8480   8.8827   9.6757  10.0427

          k = 0.0000 0.1063 0.3188 (  1659 PWs)   bands (ev):

    -4.4915  -0.5596   3.9934   5.6274   6.4062   7.6395   9.0784   9.8937

          k = 0.0000 0.1063 0.4250 (  1662 PWs)   bands (ev):

    -3.7672  -1.7673   4.6082   6.2837   6.4729   7.1018   8.0561   8.8972

          k = 0.0000 0.1063-0.5313 (  1658 PWs)   bands (ev):

    -2.8522  -2.8522   5.4489   5.4489   7.1036   7.1036   7.9417   7.9417

          k = 0.0000 0.2125 0.2125 (  1662 PWs)   bands (ev):

    -4.7008   0.3921   2.7659   5.4349   6.4762   7.5445   9.7169  10.8894

          k = 0.0000 0.2125 0.3188 (  1655 PWs)   bands (ev):

    -4.1824  -0.4297   2.6593   5.9024   6.2199   7.0886   9.0633  10.4109

          k = 0.0000 0.2125 0.4250 (  1647 PWs)   bands (ev):

    -3.4663  -1.5217   3.1577   5.0111   6.5410   7.8069   8.2035   9.5638

          k = 0.0000 0.2125-0.5313 (  1644 PWs)   bands (ev):

    -2.5678  -2.5678   3.9740   3.9740   7.3255   7.3255   8.6475   8.6475

          k = 0.0000 0.3188 0.3188 (  1638 PWs)   bands (ev):

    -3.6729  -0.5168   1.8135   4.8519   6.3505   7.7197   8.8616  10.5051

          k = 0.0000 0.3188 0.4250 (  1641 PWs)   bands (ev):

    -2.9753  -1.1949   1.9038   3.6281   6.9498   8.3518   8.4353  10.0352

          k = 0.0000 0.3188-0.5313 (  1658 PWs)   bands (ev):

    -2.1189  -2.1189   2.6114   2.6114   7.6523   7.6523   9.2424   9.2424

          k = 0.0000 0.4250 0.4250 (  1648 PWs)   bands (ev):

    -2.3205  -1.0892   1.2196   2.4241   7.4655   8.3220   9.1153  10.2072

          k = 0.0000 0.4250-0.5313 (  1664 PWs)   bands (ev):

    -1.5877  -1.5877   1.5143   1.5143   7.9853   7.9853   9.8031   9.8031

          k = 0.0000-0.5313-0.5313 (  1652 PWs)   bands (ev):

    -1.2835  -1.2835   1.0191   1.0191   8.1390   8.1390  10.0970  10.0970

          k = 0.1063 0.1063 0.1063 (  1668 PWs)   bands (ev):

    -5.2246   1.3283   4.0395   4.0395   6.0743   9.5709   9.8671   9.8671

          k = 0.1063 0.1063 0.2125 (  1668 PWs)   bands (ev):

    -4.9097   0.6263   3.5669   4.3392   6.7169   8.5081   9.7471  10.6582

          k = 0.1063 0.1063 0.3188 (  1656 PWs)   bands (ev):

    -4.3882  -0.4988   3.7575   4.8353   7.3090   7.3146   8.5646  10.2551

          k = 0.1063 0.1063 0.4250 (  1654 PWs)   bands (ev):

    -3.6663  -1.6809   4.3320   5.5223   6.1625   7.4167   7.9910   9.5617

          k = 0.1063 0.1063-0.5313 (  1638 PWs)   bands (ev):

    -2.7559  -2.7559   5.1532   5.1532   6.3894   6.3894   8.7594   8.7594

          k = 0.1063 0.2125 0.2125 (  1657 PWs)   bands (ev):

    -4.5969   0.4001   2.8687   4.3418   7.4444   7.5054   9.3389  10.2305

          k = 0.1063 0.2125 0.3188 (  1654 PWs)   bands (ev):

    -4.0798  -0.3714   2.7287   4.7994   6.1966   8.1452   8.4170  10.1007

          k = 0.1063 0.2125 0.4250 (  1662 PWs)   bands (ev):

    -3.3662  -1.4371   3.1992   5.0179   5.4731   7.3339   8.7898   9.9134

          k = 0.1063 0.2125-0.5313 (  1646 PWs)   bands (ev):

    -2.4725  -2.4725   3.9984   3.9984   6.3287   6.3287   9.4285   9.4285

          k = 0.1063 0.3188 0.3188 (  1659 PWs)   bands (ev):

    -3.5718  -0.4542   1.9176   4.8956   5.2298   8.2707   8.7638   9.6453

          k = 0.1063 0.3188 0.4250 (  1650 PWs)   bands (ev):

    -2.8768  -1.1135   1.9963   3.6949   5.8772   7.5752   9.2932   9.6209

          k = 0.1063 0.3188-0.5313 (  1650 PWs)   bands (ev):

    -2.0258  -2.0258   2.6912   2.6912   6.6863   6.6863   9.6226   9.6226

          k = 0.1063 0.4250 0.4250 (  1652 PWs)   bands (ev):

    -2.2253  -1.0088   1.3243   2.5106   6.4767   7.6523   9.2247   9.5094

          k = 0.1063 0.4250-0.5313 (  1658 PWs)   bands (ev):

    -1.4988  -1.4988   1.6120   1.6120   7.1645   7.1645   9.3471   9.3471

          k = 0.1063-0.5313-0.5313 (  1648 PWs)   bands (ev):

    -1.1987  -1.1987   1.1239   1.1239   7.4482   7.4482   9.0746   9.0746

          k = 0.2125 0.2125 0.2125 (  1650 PWs)   bands (ev):

    -4.2864   0.3007   3.1765   3.1765   6.8955   8.5325   8.9551   8.9551

          k = 0.2125 0.2125 0.3188 (  1653 PWs)   bands (ev):

    -3.7738  -0.2483   2.7523   3.6873   5.8725   7.6193   9.0804   9.1992

          k = 0.2125 0.2125 0.4250 (  1664 PWs)   bands (ev):

    -3.0688  -1.1990   3.0796   4.3974   4.7794   6.3822   9.4225   9.6114

          k = 0.2125 0.2125-0.5313 (  1654 PWs)   bands (ev):

    -2.1927  -2.1927   3.8129   3.8129   5.2999   5.2999   9.6856   9.6856

          k = 0.2125 0.3188 0.3188 (  1653 PWs)   bands (ev):

    -3.2706  -0.3036   2.2293   3.7997   4.9334   7.2578   8.2030   9.6562

          k = 0.2125 0.3188 0.4250 (  1650 PWs)   bands (ev):

    -2.5850  -0.8860   2.2539   3.8419   4.4423   6.3222   8.4033   9.5192

          k = 0.2125 0.3188-0.5313 (  1664 PWs)   bands (ev):

    -1.7535  -1.7535   2.8930   2.8930   5.3057   5.3057   8.9833   8.9833

          k = 0.2125 0.4250 0.4250 (  1647 PWs)   bands (ev):

    -1.9445  -0.7819   1.6378   2.7529   5.0233   6.4168   7.7017   8.8285

          k = 0.2125 0.4250-0.5313 (  1648 PWs)   bands (ev):

    -1.2406  -1.2406   1.8990   1.8990   5.7921   5.7921   8.0568   8.0568

          k = 0.2125-0.5313-0.5313 (  1656 PWs)   bands (ev):

    -0.9539  -0.9539   1.4380   1.4380   6.1646   6.1646   7.5281   7.5281

          k = 0.3188 0.3188 0.3188 (  1643 PWs)   bands (ev):

    -2.7777  -0.2342   2.7473   2.7473   4.5787   6.7830   6.7830   9.4611

          k = 0.3188 0.3188 0.4250 (  1663 PWs)   bands (ev):

    -2.1131  -0.5887   2.4699   3.4689   3.7499   5.4993   7.1013   8.6673

          k = 0.3188 0.3188-0.5313 (  1662 PWs)   bands (ev):

    -1.3301  -1.3301   2.9335   2.9335   4.3891   4.3891   7.8050   7.8050

          k = 0.3188 0.4250 0.4250 (  1661 PWs)   bands (ev):

    -1.4973  -0.4685   2.1592   3.0557   3.7435   5.3229   6.2429   7.6132

          k = 0.3188 0.4250-0.5313 (  1650 PWs)   bands (ev):

    -0.8470  -0.8470   2.3429   2.3429   4.5425   4.5425   6.6875   6.6875

          k = 0.3188-0.5313-0.5313 (  1656 PWs)   bands (ev):

    -0.5872  -0.5872   1.9603   1.9603   4.9277   4.9277   6.0581   6.0581

          k = 0.4250 0.4250 0.4250 (  1652 PWs)   bands (ev):

    -0.9370  -0.2460   2.8860   2.8860   3.0565   4.9377   4.9377   6.4412

          k = 0.4250 0.4250-0.5313 (  1646 PWs)   bands (ev):

    -0.4172  -0.4172   2.7336   2.7336   3.8145   3.8145   5.4747   5.4747

          k = 0.4250-0.5313-0.5313 (  1648 PWs)   bands (ev):

    -0.2009  -0.2009   2.6887   2.6887   3.9917   3.9917   4.7467   4.7467

          k =-0.5313-0.5313-0.5313 (  1640 PWs)   bands (ev):

    -0.0155  -0.0155   3.6196   3.6196   3.6196   3.6196   3.6196   3.6196

     the Fermi energy is     4.9262 ev

!    total energy              =     -93.27949227 Ry
     Harris-Foulkes estimate   =     -93.27949227 Ry
     estimated scf accuracy    <          2.7E-11 Ry

     total all-electron energy =       -93.279492 Ry

     The total energy is the sum of the following terms:

     one-electron contribution =       6.32161360 Ry
     hartree contribution      =       0.30370909 Ry
     xc contribution           =      -5.15711754 Ry
     ewald contribution        =     -16.97324214 Ry
     one-center paw contrib.   =     -77.76075828 Ry
     smearing contrib. (-TS)   =      -0.01369699 Ry

     convergence has been achieved in   9 iterations

     negative rho (up, down):  5.135E-03 0.000E+00

     Forces acting on atoms (cartesian axes, Ry/au):

     atom    1 type  1   force =     0.00000000    0.00000000    0.00000000
     atom    2 type  1   force =     0.00000000    0.00000000    0.00000000

     Total force =     0.000000     Total SCF correction =     0.000000


     Computing stress (Cartesian axis) and pressure


     negative rho (up, down):  5.135E-03 0.000E+00
          total   stress  (Ry/bohr**3)                   (kbar)     P= -149.62
  -0.00101709   0.00000000   0.00000000       -149.62      0.00      0.00
   0.00000000  -0.00101709   0.00000000          0.00   -149.62      0.00
   0.00000000   0.00000000  -0.00101709          0.00      0.00   -149.62


     number of scf cycles    =   3
     number of bfgs steps    =   2

     enthalpy old            =     -93.2417237550 Ry
     enthalpy new            =     -93.2794922690 Ry

     CASE: enthalpy_new < enthalpy_old

     new trust radius        =       0.2022109573 bohr
     new conv_thr            =            1.0E-10 Ry

     new unit-cell volume =    271.48479 a.u.^3 (    40.22990 Ang^3 )
     density =      2.31853 g/cm^3

CELL_PARAMETERS (alat=  7.29000000)
   0.888220873   0.000000000   0.000000000
   0.000000000   0.888220873   0.000000000
   0.000000000   0.000000000   0.888220873

ATOMIC_POSITIONS (crystal)
Si       0.000000000   0.000000000   0.000000000    0   0   0
Si       0.500000000   0.500000000   0.500000000    0   0   0



     Writing output data file relax.save/
     Check: negative starting charge=   -0.004297
     NEW-OLD atomic charge density approx. for the potential
     Check: negative starting charge=   -0.003989

     negative rho (up, down):  4.176E-03 0.000E+00
     extrapolated charge    6.48259, renormalised to    8.00000

     total cpu time spent up to now is       11.2 secs

     Self-consistent Calculation

     iteration #  1     ecut=    40.00 Ry     beta= 0.70
     Davidson diagonalization with overlap
     ethr =  1.00E-06,  avg # of iterations =  7.0

     negative rho (up, down):  4.073E-03 0.000E+00

     total cpu time spent up to now is       11.8 secs

     total energy              =     -93.32872389 Ry
     Harris-Foulkes estimate   =     -92.13851036 Ry
     estimated scf accuracy    <       0.00714843 Ry

     iteration #  2     ecut=    40.00 Ry     beta= 0.70
     Davidson diagonalization with overlap
     ethr =  8.94E-05,  avg # of iterations =  2.0

     negative rho (up, down):  3.789E-03 0.000E+00

     total cpu time spent up to now is       12.1 secs

     total energy              =     -93.33123872 Ry
     Harris-Foulkes estimate   =     -93.33166320 Ry
     estimated scf accuracy    <       0.00007811 Ry

     iteration #  3     ecut=    40.00 Ry     beta= 0.70
     Davidson diagonalization with overlap
     ethr =  9.76E-07,  avg # of iterations =  4.1

     negative rho (up, down):  4.150E-03 0.000E+00

     total cpu time spent up to now is       12.5 secs

     total energy              =     -93.33138565 Ry
     Harris-Foulkes estimate   =     -93.33137969 Ry
     estimated scf accuracy    <       0.00000235 Ry

     iteration #  4     ecut=    40.00 Ry     beta= 0.70
     Davidson diagonalization with overlap
     ethr =  2.94E-08,  avg # of iterations =  3.0

     negative rho (up, down):  4.549E-03 0.000E+00

     total cpu time spent up to now is       12.9 secs

     total energy              =     -93.33139466 Ry
     Harris-Foulkes estimate   =     -93.33138931 Ry
     estimated scf accuracy    <       0.00000054 Ry

     iteration #  5     ecut=    40.00 Ry     beta= 0.70
     Davidson diagonalization with overlap
     ethr =  6.79E-09,  avg # of iterations =  3.1

     negative rho (up, down):  4.597E-03 0.000E+00

     total cpu time spent up to now is       13.3 secs

     total energy              =     -93.33139610 Ry
     Harris-Foulkes estimate   =     -93.33139604 Ry
     estimated scf accuracy    <       0.00000001 Ry

     iteration #  6     ecut=    40.00 Ry     beta= 0.70
     Davidson diagonalization with overlap
     ethr =  1.31E-10,  avg # of iterations =  3.2

     negative rho (up, down):  4.600E-03 0.000E+00

     total cpu time spent up to now is       13.8 secs

     total energy              =     -93.33139610 Ry
     Harris-Foulkes estimate   =     -93.33139610 Ry
     estimated scf accuracy    <          1.5E-09 Ry

     iteration #  7     ecut=    40.00 Ry     beta= 0.70
     Davidson diagonalization with overlap
     ethr =  1.83E-11,  avg # of iterations =  3.0

     negative rho (up, down):  4.600E-03 0.000E+00

     total cpu time spent up to now is       14.3 secs

     End of self-consistent calculation

          k = 0.0000 0.0000 0.0000 (  1647 PWs)   bands (ev):

    -4.9893   5.0198   6.2834   6.2834   6.2834   9.9536   9.9536  14.5074

          k = 0.0000 0.0000 0.1126 (  1683 PWs)   bands (ev):

    -4.8677   4.0750   6.3945   6.3945   6.5425  10.0788  10.9608  14.0460

          k = 0.0000 0.0000 0.2252 (  1679 PWs)   bands (ev):

    -4.5036   2.4382   6.7269   6.7269   6.9604  10.4540  12.7957  12.9678

          k = 0.0000 0.0000 0.3378 (  1667 PWs)   bands (ev):

    -3.8990   0.7971   7.2780   7.2780   7.5474  11.4507  11.4507  11.6933

          k = 0.0000 0.0000 0.4503 (  1654 PWs)   bands (ev):

    -3.0576  -0.6938   8.0422   8.0422   8.3304  10.1587  10.1587  10.4392

          k = 0.0000 0.0000-0.5629 (  1654 PWs)   bands (ev):

    -1.9856  -1.9856   9.0091   9.0091   9.0091   9.0091   9.3025   9.3025

          k = 0.0000 0.1126 0.1126 (  1665 PWs)   bands (ev):

    -4.7463   3.7775   5.3335   6.5053   7.4024  10.7235  11.3703  12.9048

          k = 0.0000 0.1126 0.2252 (  1658 PWs)   bands (ev):

    -4.3826   2.4820   5.2093   6.8368   7.9903  11.2673  11.4627  12.7254

          k = 0.0000 0.1126 0.3378 (  1659 PWs)   bands (ev):

    -3.7788   0.8943   5.6864   7.3859   8.6239   9.9923  11.4896  11.8923

          k = 0.0000 0.1126 0.4503 (  1662 PWs)   bands (ev):

    -2.9389  -0.5829   6.4479   8.1464   8.6304   9.4173  10.2385  11.4896

          k = 0.0000 0.1126-0.5629 (  1658 PWs)   bands (ev):

    -1.8695  -1.8695   7.4380   7.4380   9.1056   9.1056  10.3816  10.3816

          k = 0.0000 0.2252 0.2252 (  1662 PWs)   bands (ev):

    -4.0204   2.3061   3.9258   7.1651   8.6588   9.8572  12.3678  12.8263

          k = 0.0000 0.2252 0.3378 (  1655 PWs)   bands (ev):

    -3.4194   1.1458   3.9706   7.7077   8.2964   9.3208  11.5386  13.2196

          k = 0.0000 0.2252 0.4503 (  1647 PWs)   bands (ev):

    -2.5843  -0.2591   4.6707   6.8822   8.4548  10.1278  10.4543  12.1747

          k = 0.0000 0.2252-0.5629 (  1644 PWs)   bands (ev):

    -1.5242  -1.5242   5.6624   5.6624   9.3861   9.3861  11.0942  11.0942

          k = 0.0000 0.3378 0.3378 (  1638 PWs)   bands (ev):

    -2.8238   1.1868   2.8202   6.6847   8.2358   9.9881  11.3526  13.3066

          k = 0.0000 0.3378 0.4503 (  1641 PWs)   bands (ev):

    -1.9993   0.2256   3.0889   5.2443   8.9524  10.7050  10.7871  12.6878

          k = 0.0000 0.3378-0.5629 (  1658 PWs)   bands (ev):

    -0.9630  -0.9630   4.0225   4.0225   9.8141   9.8141  11.7223  11.7223

          k = 0.0000 0.4503 0.4503 (  1648 PWs)   bands (ev):

    -1.1992   0.4979   2.1384   3.8022   9.5986  10.7260  11.5510  12.8979

          k = 0.0000 0.4503-0.5629 (  1664 PWs)   bands (ev):

    -0.2408  -0.2408   2.6383   2.6383  10.2810  10.2810  12.3726  12.3726

          k = 0.0000-0.5629-0.5629 (  1652 PWs)   bands (ev):

     0.2659   0.2659   1.9091   1.9091  10.5151  10.5151  12.7498  12.7498

          k = 0.1126 0.1126 0.1126 (  1668 PWs)   bands (ev):

    -4.6250   3.5888   5.4481   5.4481   8.3092  11.4911  11.4911  12.3581

          k = 0.1126 0.1126 0.2252 (  1668 PWs)   bands (ev):

    -4.2618   2.5228   5.0605   5.7910   9.0504  11.1042  11.8529  12.2206

          k = 0.1126 0.1126 0.3378 (  1656 PWs)   bands (ev):

    -3.6588   0.9908   5.4670   6.3603   9.6957   9.7117  10.7407  13.1108

          k = 0.1126 0.1126 0.4503 (  1654 PWs)   bands (ev):

    -2.8203  -0.4723   6.2059   7.1518   8.3601   9.3640  10.4761  12.3018

          k = 0.1126 0.1126-0.5629 (  1638 PWs)   bands (ev):

    -1.7535  -1.7535   7.1828   7.1828   8.1579   8.1579  11.3615  11.3615

          k = 0.1126 0.2252 0.2252 (  1657 PWs)   bands (ev):

    -3.9000   2.3546   4.0426   5.8454   9.8198   9.9407  11.7714  12.8016

          k = 0.1126 0.2252 0.3378 (  1654 PWs)   bands (ev):

    -3.2998   1.2395   4.0595   6.3858   8.3263  10.6301  10.6380  12.7183

          k = 0.1126 0.2252 0.4503 (  1662 PWs)   bands (ev):

    -2.4662  -0.1494   4.7449   6.9355   7.1651   9.3366  11.3574  12.6323

          k = 0.1126 0.2252-0.5629 (  1646 PWs)   bands (ev):

    -1.4088  -1.4088   5.7274   5.7274   8.1575   8.1575  12.1015  12.1015

          k = 0.1126 0.3378 0.3378 (  1659 PWs)   bands (ev):

    -2.7051   1.2794   2.9380   6.7638   6.9102  10.5700  11.2889  11.9844

          k = 0.1126 0.3378 0.4503 (  1650 PWs)   bands (ev):

    -1.8821   0.3331   3.1975   5.3385   7.6708   9.7045  11.8893  12.0577

          k = 0.1126 0.3378-0.5629 (  1650 PWs)   bands (ev):

    -0.8488  -0.8488   4.1242   4.1242   8.6264   8.6264  12.2252  12.2252

          k = 0.1126 0.4503 0.4503 (  1652 PWs)   bands (ev):

    -1.0838   0.6030   2.2566   3.9084   8.3948   9.8827  11.4286  12.0710

          k = 0.1126 0.4503-0.5629 (  1658 PWs)   bands (ev):

    -0.1290  -0.1290   2.7511   2.7511   9.2482   9.2482  11.6954  11.6954

          k = 0.1126-0.5629-0.5629 (  1648 PWs)   bands (ev):

     0.3740   0.3740   2.0274   2.0274   9.6558   9.6558  11.2349  11.2349

          k = 0.2252 0.2252 0.2252 (  1650 PWs)   bands (ev):

    -3.5396   2.3127   4.3927   4.3927   9.3096  11.1386  11.1386  11.2195

          k = 0.2252 0.2252 0.3378 (  1653 PWs)   bands (ev):

    -2.9422   1.4783   4.0902   4.9747   8.0908   9.5255  11.3248  11.9578

          k = 0.2252 0.2252 0.4503 (  1664 PWs)   bands (ev):

    -2.1136   0.1702   4.6768   5.7861   6.7831   8.0742  11.8312  12.3687

          k = 0.2252 0.2252-0.5629 (  1654 PWs)   bands (ev):

    -1.0659  -1.0659   5.6173   5.6173   6.8221   6.8221  12.3062  12.3062

          k = 0.2252 0.3378 0.3378 (  1653 PWs)   bands (ev):

    -2.3504   1.5234   3.2912   5.1782   6.9255   9.2208  10.1844  12.4127

          k = 0.2252 0.3378 0.4503 (  1650 PWs)   bands (ev):

    -1.5326   0.6448   3.5056   5.5815   5.9371   8.1245  10.4928  12.0587

          k = 0.2252 0.3378-0.5629 (  1664 PWs)   bands (ev):

    -0.5099  -0.5099   4.4009   4.4009   6.9378   6.9378  11.2694  11.2694

          k = 0.2252 0.4503 0.4503 (  1647 PWs)   bands (ev):

    -0.7403   0.9077   2.6112   4.2152   6.6574   8.3680   9.5694  11.0750

          k = 0.2252 0.4503-0.5629 (  1648 PWs)   bands (ev):

     0.2012   0.2012   3.0845   3.0845   7.5870   7.5870  10.0725  10.0725

          k = 0.2252-0.5629-0.5629 (  1656 PWs)   bands (ev):

     0.6914   0.6914   2.3824   2.3824   8.1091   8.1091   9.3592   9.3592

          k = 0.3378 0.3378 0.3378 (  1643 PWs)   bands (ev):

    -1.7643   1.6920   3.8788   3.8788   6.6476   8.5080   8.5080  11.9602

          k = 0.3378 0.3378 0.4503 (  1663 PWs)   bands (ev):

    -0.9582   1.1016   3.7532   4.6990   5.5991   7.0219   8.9296  10.8796

          k = 0.3378 0.3378-0.5629 (  1662 PWs)   bands (ev):

     0.0373   0.0373   4.5205   4.5205   5.7486   5.7486   9.8046   9.8046

          k = 0.3378 0.4503 0.4503 (  1661 PWs)   bands (ev):

    -0.1793   1.3599   3.2013   4.6448   5.0981   6.9650   7.8654   9.5824

          k = 0.3378 0.4503-0.5629 (  1650 PWs)   bands (ev):

     0.7286   0.7286   3.6090   3.6090   6.0493   6.0493   8.4573   8.4573

          k = 0.3378-0.5629-0.5629 (  1656 PWs)   bands (ev):

     1.1893   1.1893   2.9732   2.9732   6.6043   6.6043   7.6474   7.6474

          k = 0.4503 0.4503 0.4503 (  1652 PWs)   bands (ev):

     0.5673   1.7234   4.0255   4.0255   4.6927   6.3639   6.3639   8.1938

          k = 0.4503 0.4503-0.5629 (  1646 PWs)   bands (ev):

     1.3735   1.3735   4.0487   4.0487   5.0812   5.0812   7.0384   7.0384

          k = 0.4503-0.5629-0.5629 (  1648 PWs)   bands (ev):

     1.7698   1.7698   3.7985   3.7985   5.3930   5.3930   6.1414   6.1414

          k =-0.5629-0.5629-0.5629 (  1640 PWs)   bands (ev):

     2.0935   2.0935   4.8560   4.8560   4.8560   4.8560   4.8560   4.8560

     the Fermi energy is     6.6524 ev

!    total energy              =     -93.33139610 Ry
     Harris-Foulkes estimate   =     -93.33139610 Ry
     estimated scf accuracy    <          3.1E-12 Ry

     total all-electron energy =       -93.331396 Ry

     The total energy is the sum of the following terms:

     one-electron contribution =       7.55859742 Ry
     hartree contribution      =       0.18792266 Ry
     xc contribution           =      -5.31665929 Ry
     ewald contribution        =     -17.98503929 Ry
     one-center paw contrib.   =     -77.76433038 Ry
     smearing contrib. (-TS)   =      -0.01188721 Ry

     convergence has been achieved in   7 iterations

     negative rho (up, down):  4.600E-03 0.000E+00

     Forces acting on atoms (cartesian axes, Ry/au):

     atom    1 type  1   force =     0.00000000    0.00000000    0.00000000
     atom    2 type  1   force =     0.00000000    0.00000000    0.00000000

     Total force =     0.000000     Total SCF correction =     0.000000


     Computing stress (Cartesian axis) and pressure


     negative rho (up, down):  4.600E-03 0.000E+00
          total   stress  (Ry/bohr**3)                   (kbar)     P= -142.37
  -0.00096778   0.00000000   0.00000000       -142.37      0.00      0.00
   0.00000000  -0.00096778   0.00000000          0.00   -142.37      0.00
   0.00000000   0.00000000  -0.00096778          0.00      0.00   -142.37


     number of scf cycles    =   4
     number of bfgs steps    =   3

     enthalpy old            =     -93.2794922690 Ry
     enthalpy new            =     -93.3313961005 Ry

     CASE: enthalpy_new < enthalpy_old

     new trust radius        =       0.2946609958 bohr
     new conv_thr            =            1.0E-10 Ry

     new unit-cell volume =    204.97655 a.u.^3 (    30.37439 Ang^3 )
     density =      3.07081 g/cm^3

CELL_PARAMETERS (alat=  7.29000000)
   0.808798861   0.000000000   0.000000000
   0.000000000   0.808798861   0.000000000
   0.000000000   0.000000000   0.808798861

ATOMIC_POSITIONS (crystal)
Si       0.000000000   0.000000000   0.000000000    0   0   0
Si       0.500000000   0.500000000   0.500000000    0   0   0



     Writing output data file relax.save/
     Check: negative starting charge=   -0.003989
     NEW-OLD atomic charge density approx. for the potential
     Check: negative starting charge=   -0.002904

     negative rho (up, down):  2.592E-03 0.000E+00
     extrapolated charge    5.40467, renormalised to    8.00000

     total cpu time spent up to now is       15.5 secs

     Self-consistent Calculation

     iteration #  1     ecut=    40.00 Ry     beta= 0.70
     Davidson diagonalization with overlap
     ethr =  1.00E-06,  avg # of iterations =  7.3

     negative rho (up, down):  2.246E-03 0.000E+00

     total cpu time spent up to now is       16.4 secs

     total energy              =     -93.37667127 Ry
     Harris-Foulkes estimate   =     -91.19779165 Ry
     estimated scf accuracy    <       0.02804656 Ry

     iteration #  2     ecut=    40.00 Ry     beta= 0.70
     Davidson diagonalization with overlap
     ethr =  3.51E-04,  avg # of iterations =  1.0

     negative rho (up, down):  1.891E-03 0.000E+00

     total cpu time spent up to now is       16.6 secs

     total energy              =     -93.37770566 Ry
     Harris-Foulkes estimate   =     -93.37892941 Ry
     estimated scf accuracy    <       0.00063935 Ry

     iteration #  3     ecut=    40.00 Ry     beta= 0.70
     Davidson diagonalization with overlap
     ethr =  7.99E-06,  avg # of iterations =  3.1

     negative rho (up, down):  2.901E-03 0.000E+00

     total cpu time spent up to now is       17.0 secs

     total energy              =     -93.37834495 Ry
     Harris-Foulkes estimate   =     -93.37827691 Ry
     estimated scf accuracy    <       0.00002351 Ry

     iteration #  4     ecut=    40.00 Ry     beta= 0.70
     Davidson diagonalization with overlap
     ethr =  2.94E-07,  avg # of iterations =  3.0

     negative rho (up, down):  3.503E-03 0.000E+00

     total cpu time spent up to now is       17.3 secs

     total energy              =     -93.37836096 Ry
     Harris-Foulkes estimate   =     -93.37835470 Ry
     estimated scf accuracy    <       0.00000068 Ry

     iteration #  5     ecut=    40.00 Ry     beta= 0.70
     Davidson diagonalization with overlap
     ethr =  8.55E-09,  avg # of iterations =  3.7

     negative rho (up, down):  3.543E-03 0.000E+00

     total cpu time spent up to now is       17.8 secs

     total energy              =     -93.37836175 Ry
     Harris-Foulkes estimate   =     -93.37836174 Ry
     estimated scf accuracy    <       0.00000004 Ry

     iteration #  6     ecut=    40.00 Ry     beta= 0.70
     Davidson diagonalization with overlap
     ethr =  5.29E-10,  avg # of iterations =  1.7

     negative rho (up, down):  3.545E-03 0.000E+00

     total cpu time spent up to now is       18.2 secs

     End of self-consistent calculation

          k = 0.0000 0.0000 0.0000 (  1647 PWs)   bands (ev):

    -3.9126   9.4867   9.4867   9.4867  10.7204  12.5129  12.5129  20.8769

          k = 0.0000 0.0000 0.1236 (  1683 PWs)   bands (ev):

    -3.7634   7.6996   9.6217   9.6217  11.2919  12.6645  14.1134  20.2782

          k = 0.0000 0.0000 0.2473 (  1679 PWs)   bands (ev):

    -3.3164   5.3903  10.0263  10.0263  11.7907  13.1190  17.0667  17.8119

          k = 0.0000 0.0000 0.3709 (  1667 PWs)   bands (ev):

    -2.5736   3.2648  10.6994  10.6994  12.4883  15.9633  15.9633  17.4248

          k = 0.0000 0.0000 0.4946 (  1654 PWs)   bands (ev):

    -1.5382   1.3896  11.6384  11.6384  13.4240  14.2874  14.2874  15.9356

          k = 0.0000 0.0000-0.6182 (  1654 PWs)   bands (ev):

    -0.2149  -0.2149  12.8380  12.8380  12.8380  12.8380  14.5838  14.5838

          k = 0.0000 0.1236 0.1236 (  1665 PWs)   bands (ev):

    -3.6143   7.6704   8.0377   9.7566  11.9235  13.8999  14.5290  18.2672

          k = 0.0000 0.1236 0.2473 (  1658 PWs)   bands (ev):

    -3.1677   5.5265   8.2919  10.1610  12.4321  14.5746  16.2980  17.2299

          k = 0.0000 0.1236 0.3709 (  1659 PWs)   bands (ev):

    -2.4254   3.4071   8.9816  10.8335  13.1426  14.3898  15.3031  16.0610

          k = 0.0000 0.1236 0.4946 (  1662 PWs)   bands (ev):

    -1.3908   1.5343   9.9476  11.7712  12.6685  14.0991  14.4091  16.2999

          k = 0.0000 0.1236-0.6182 (  1658 PWs)   bands (ev):

    -0.0687  -0.0687  11.1806  11.1806  12.9677  12.9677  15.2862  15.2862

          k = 0.0000 0.2473 0.2473 (  1662 PWs)   bands (ev):

    -2.7221   5.7423   6.1999  10.5644  12.9424  14.2091  17.0779  17.5123

          k = 0.0000 0.2473 0.3709 (  1655 PWs)   bands (ev):

    -1.9816   3.8290   6.7013  11.2348  12.2284  13.6576  16.2908  18.0910

          k = 0.0000 0.2473 0.4946 (  1647 PWs)   bands (ev):

    -0.9495   1.9670   7.6798  10.4591  12.1676  14.6222  14.7595  17.2003

          k = 0.0000 0.2473-0.6182 (  1644 PWs)   bands (ev):

     0.3692   0.3692   8.9370   8.9370  13.3521  13.3521  15.8196  15.8196

          k = 0.0000 0.3709 0.3709 (  1638 PWs)   bands (ev):

    -1.2441   4.3152   4.8209  10.2021  11.9001  14.3665  16.2422  18.6768

          k = 0.0000 0.3709 0.4946 (  1641 PWs)   bands (ev):

    -0.2165   2.6798   5.5925   8.4022  12.8203  15.2574  15.3163  17.7548

          k = 0.0000 0.3709-0.6182 (  1658 PWs)   bands (ev):

     1.0955   1.0955   6.8592   6.8592  13.9704  13.9704  16.4803  16.4803

          k = 0.0000 0.4946 0.4946 (  1648 PWs)   bands (ev):

     0.8039   3.4455   3.9827   6.5821  13.7065  15.4782  16.2281  18.0388

          k = 0.0000 0.4946-0.6182 (  1664 PWs)   bands (ev):

     2.1009   2.1009   5.0307   5.0307  14.7384  14.7384  17.2825  17.2825

          k = 0.0000-0.6182-0.6182 (  1652 PWs)   bands (ev):

     3.1536   3.1536   3.7022   3.7022  15.2235  15.2235  17.8160  17.8160

          k = 0.1236 0.1236 0.1236 (  1668 PWs)   bands (ev):

    -3.4653   7.6611   8.1774   8.1774  13.2528  14.6751  14.6751  17.7715

          k = 0.1236 0.1236 0.2473 (  1668 PWs)   bands (ev):

    -3.0190   5.6624   8.2877   8.5962  13.9592  15.1132  16.1151  16.7634

          k = 0.1236 0.1236 0.3709 (  1656 PWs)   bands (ev):

    -2.2774   3.5493   8.9699   9.2931  14.2960  14.6482  14.7844  15.8418

          k = 0.1236 0.1236 0.4946 (  1654 PWs)   bands (ev):

    -1.2436   1.6789   9.9291  10.2663  12.6158  13.0230  15.5360  17.7693

          k = 0.1236 0.1236-0.6182 (  1638 PWs)   bands (ev):

     0.0775   0.0775  11.1499  11.1499  11.5120  11.5120  16.6074  16.6074

          k = 0.1236 0.2473 0.2473 (  1657 PWs)   bands (ev):

    -2.5738   5.8752   6.3414   8.8731  14.3053  14.7723  16.4754  17.4216

          k = 0.1236 0.2473 0.3709 (  1654 PWs)   bands (ev):

    -1.8338   3.9710   6.8381   9.5628  12.3503  14.9253  15.4672  17.5609

          k = 0.1236 0.2473 0.4946 (  1662 PWs)   bands (ev):

    -0.8025   2.1114   7.8153  10.5272  10.5890  13.2370  16.3430  17.8599

          k = 0.1236 0.2473-0.6182 (  1646 PWs)   bands (ev):

     0.5151   0.5151   9.0706   9.0706  11.7570  11.7570  17.3066  17.3066

          k = 0.1236 0.3709 0.3709 (  1659 PWs)   bands (ev):

    -1.0968   4.4567   4.9630  10.2482  10.3362  15.1288  16.1345  16.1894

          k = 0.1236 0.3709 0.4946 (  1650 PWs)   bands (ev):

    -0.0700   2.8238   5.7335   8.5401  11.2052  13.8505  16.5836  16.8890

          k = 0.1236 0.3709-0.6182 (  1650 PWs)   bands (ev):

     1.2410   1.2410   6.9990   6.9990  12.4190  12.4190  17.2072  17.2072

          k = 0.1236 0.4946 0.4946 (  1652 PWs)   bands (ev):

     0.9497   3.5898   4.1250   6.7227  12.1466  14.3369  15.4084  16.9754

          k = 0.1236 0.4946-0.6182 (  1658 PWs)   bands (ev):

     2.2458   2.2458   5.1728   5.1728  13.3136  13.3136  16.0770  16.0770

          k = 0.1236-0.6182-0.6182 (  1648 PWs)   bands (ev):

     3.2986   3.2986   3.8446   3.8446  14.0735  14.0735  15.1433  15.1433

          k = 0.2473 0.2473 0.2473 (  1650 PWs)   bands (ev):

    -2.1295   6.1145   6.7658   6.7658  14.1257  15.1441  15.1441  16.7584

          k = 0.2473 0.2473 0.3709 (  1653 PWs)   bands (ev):

    -1.3912   4.3916   7.0806   7.4726  12.4711  13.0818  15.5359  17.5013

          k = 0.2473 0.2473 0.4946 (  1664 PWs)   bands (ev):

    -0.3624   2.5431   8.0442   8.4607  10.7738  11.2712  16.3540  17.7818

          k = 0.2473 0.2473-0.6182 (  1654 PWs)   bands (ev):

     0.9519   0.9519   9.2843   9.2843   9.7283   9.7283  17.2663  17.2663

          k = 0.2473 0.3709 0.3709 (  1653 PWs)   bands (ev):

    -0.6558   4.8737   5.3892   7.9952  10.7243  13.2050  13.8481  17.7734

          k = 0.2473 0.3709 0.4946 (  1650 PWs)   bands (ev):

     0.3687   3.2544   6.1528   8.9477   8.9692  11.7170  14.4818  16.8536

          k = 0.2473 0.3709-0.6182 (  1664 PWs)   bands (ev):

     1.6765   1.6765   7.4140   7.4140  10.2169  10.2169  15.6051  15.6051

          k = 0.2473 0.4946 0.4946 (  1647 PWs)   bands (ev):

     1.3863   4.0201   4.5519   7.1426   9.9333  12.3651  13.0429  15.3504

          k = 0.2473 0.4946-0.6182 (  1648 PWs)   bands (ev):

     2.6795   2.6795   5.5978   5.5978  11.1580  11.1580  13.9503  13.9503

          k = 0.2473-0.6182-0.6182 (  1656 PWs)   bands (ev):

     3.7319   3.7319   4.2716   4.2716  12.0905  12.0905  12.7713  12.7713

          k = 0.3709 0.3709 0.3709 (  1643 PWs)   bands (ev):

     0.0768   5.3881   6.0994   6.0994  10.9296  11.7530  11.7530  16.6711

          k = 0.3709 0.3709 0.4946 (  1663 PWs)   bands (ev):

     1.0973   3.9633   6.6652   7.0928   9.3989   9.9233  12.4882  15.1079

          k = 0.3709 0.3709-0.6182 (  1662 PWs)   bands (ev):

     2.3988   2.3988   7.9039   7.9039   8.3682   8.3682  13.6786  13.6786

          k = 0.3709 0.4946 0.4946 (  1661 PWs)   bands (ev):

     2.1110   4.7238   5.2633   7.8285   7.8817  10.4319  10.9347  13.4116

          k = 0.3709 0.4946-0.6182 (  1650 PWs)   bands (ev):

     3.3982   3.3982   6.2987   6.2987   9.1282   9.1282  11.9366  11.9366

          k = 0.3709-0.6182-0.6182 (  1656 PWs)   bands (ev):

     4.4461   4.4461   4.9833   4.9833  10.1383  10.1383  10.6595  10.6595

          k = 0.4946 0.4946 0.4946 (  1652 PWs)   bands (ev):

     3.1183   5.5139   6.2587   6.2587   8.3841   9.0972   9.0972  11.6568

          k = 0.4946 0.4946-0.6182 (  1646 PWs)   bands (ev):

     4.3908   4.3908   7.0720   7.0720   7.5373   7.5373  10.1543  10.1543

          k = 0.4946-0.6182-0.6182 (  1648 PWs)   bands (ev):

     5.4166   5.4166   5.9793   5.9793   8.3990   8.3990   8.8198   8.8198

          k =-0.6182-0.6182-0.6182 (  1640 PWs)   bands (ev):

     6.2976   6.2976   7.2587   7.2587   7.2587   7.2587   7.2587   7.2587

     the Fermi energy is    10.0096 ev

!    total energy              =     -93.37836176 Ry
     Harris-Foulkes estimate   =     -93.37836176 Ry
     estimated scf accuracy    <          6.5E-11 Ry

     total all-electron energy =       -93.378362 Ry

     The total energy is the sum of the following terms:

     one-electron contribution =       9.73252060 Ry
     hartree contribution      =       0.07094082 Ry
     xc contribution           =      -5.64055007 Ry
     ewald contribution        =     -19.75112486 Ry
     one-center paw contrib.   =     -77.78090280 Ry
     smearing contrib. (-TS)   =      -0.00924545 Ry

     convergence has been achieved in   6 iterations

     negative rho (up, down):  3.545E-03 0.000E+00

     Forces acting on atoms (cartesian axes, Ry/au):

     atom    1 type  1   force =     0.00000000    0.00000000    0.00000000
     atom    2 type  1   force =     0.00000000    0.00000000   -0.00000000

     Total force =     0.000000     Total SCF correction =     0.000000


     Computing stress (Cartesian axis) and pressure


     negative rho (up, down):  3.545E-03 0.000E+00
          total   stress  (Ry/bohr**3)                   (kbar)     P=  -29.26
  -0.00019894   0.00000000   0.00000000        -29.26      0.00      0.00
   0.00000000  -0.00019894   0.00000000          0.00    -29.26      0.00
   0.00000000   0.00000000  -0.00019894          0.00      0.00    -29.26


     number of scf cycles    =   5
     number of bfgs steps    =   4

     enthalpy old            =     -93.3313961005 Ry
     enthalpy new            =     -93.3783617582 Ry

     CASE: enthalpy_new < enthalpy_old

     new trust radius        =       0.0577713441 bohr
     new conv_thr            =            1.0E-10 Ry

     new unit-cell volume =    192.81849 a.u.^3 (    28.57275 Ang^3 )
     density =      3.26444 g/cm^3

CELL_PARAMETERS (alat=  7.29000000)
   0.792480711   0.000000000   0.000000000
   0.000000000   0.792480711   0.000000000
   0.000000000   0.000000000   0.792480711

ATOMIC_POSITIONS (crystal)
Si       0.000000000   0.000000000   0.000000000    0   0   0
Si       0.500000000   0.500000000   0.500000000    0   0   0



     Writing output data file relax.save/
     Check: negative starting charge=   -0.002904
     NEW-OLD atomic charge density approx. for the potential
     Check: negative starting charge=   -0.002593

     negative rho (up, down):  3.057E-03 0.000E+00
     extrapolated charge    7.49564, renormalised to    8.00000

     total cpu time spent up to now is       19.5 secs

     Self-consistent Calculation

     iteration #  1     ecut=    40.00 Ry     beta= 0.70
     Davidson diagonalization with overlap
     ethr =  1.00E-06,  avg # of iterations =  4.3

     negative rho (up, down):  3.073E-03 0.000E+00

     total cpu time spent up to now is       19.9 secs

     total energy              =     -93.37854854 Ry
     Harris-Foulkes estimate   =     -92.92097703 Ry
     estimated scf accuracy    <       0.00011219 Ry

     iteration #  2     ecut=    40.00 Ry     beta= 0.70
     Davidson diagonalization with overlap
     ethr =  1.40E-06,  avg # of iterations =  2.0

     negative rho (up, down):  3.048E-03 0.000E+00

     total cpu time spent up to now is       20.1 secs

     total energy              =     -93.37857427 Ry
     Harris-Foulkes estimate   =     -93.37860171 Ry
     estimated scf accuracy    <       0.00000154 Ry

     iteration #  3     ecut=    40.00 Ry     beta= 0.70
     Davidson diagonalization with overlap
     ethr =  1.92E-08,  avg # of iterations =  4.0

     negative rho (up, down):  3.212E-03 0.000E+00

     total cpu time spent up to now is       20.5 secs

     total energy              =     -93.37858077 Ry
     Harris-Foulkes estimate   =     -93.37858074 Ry
     estimated scf accuracy    <       0.00000032 Ry

     iteration #  4     ecut=    40.00 Ry     beta= 0.70
     Davidson diagonalization with overlap
     ethr =  4.01E-09,  avg # of iterations =  3.4

     negative rho (up, down):  3.249E-03 0.000E+00

     total cpu time spent up to now is       20.8 secs

     total energy              =     -93.37858128 Ry
     Harris-Foulkes estimate   =     -93.37858142 Ry
     estimated scf accuracy    <       0.00000001 Ry

     iteration #  5     ecut=    40.00 Ry     beta= 0.70
     Davidson diagonalization with overlap
     ethr =  1.63E-10,  avg # of iterations =  3.3

     negative rho (up, down):  3.264E-03 0.000E+00

     total cpu time spent up to now is       21.1 secs

     total energy              =     -93.37858130 Ry
     Harris-Foulkes estimate   =     -93.37858129 Ry
     estimated scf accuracy    <          7.5E-10 Ry

     iteration #  6     ecut=    40.00 Ry     beta= 0.70
     Davidson diagonalization with overlap
     ethr =  9.36E-12,  avg # of iterations =  3.0

     negative rho (up, down):  3.265E-03 0.000E+00

     total cpu time spent up to now is       21.3 secs

     total energy              =     -93.37858130 Ry
     Harris-Foulkes estimate   =     -93.37858130 Ry
     estimated scf accuracy    <          1.4E-10 Ry

     iteration #  7     ecut=    40.00 Ry     beta= 0.70
     Davidson diagonalization with overlap
     ethr =  1.77E-12,  avg # of iterations =  3.0

     negative rho (up, down):  3.265E-03 0.000E+00

     total cpu time spent up to now is       21.6 secs

     End of self-consistent calculation

          k = 0.0000 0.0000 0.0000 (  1647 PWs)   bands (ev):

    -3.6392  10.2951  10.2951  10.2951  12.1785  13.1416  13.1416  22.4925

          k = 0.0000 0.0000 0.1262 (  1683 PWs)   bands (ev):

    -3.4836   8.4774  10.4353  10.4353  12.5768  13.2996  14.9607  21.8498

          k = 0.0000 0.0000 0.2524 (  1679 PWs)   bands (ev):

    -3.0174   6.0639  10.8559  10.8559  13.0394  13.7735  18.0982  19.0162

          k = 0.0000 0.0000 0.3786 (  1667 PWs)   bands (ev):

    -2.2427   3.8453  11.5561  11.5561  13.7525  14.5625  17.0596  17.0596

          k = 0.0000 0.0000 0.5047 (  1654 PWs)   bands (ev):

    -1.1630   1.8896  12.5339  12.5339  14.7213  15.3003  15.3003  17.3255

          k = 0.0000 0.0000-0.6309 (  1654 PWs)   bands (ev):

     0.2167   0.2167  13.7850  13.7850  13.7850  13.7850  15.9241  15.9241

          k = 0.0000 0.1262 0.1262 (  1665 PWs)   bands (ev):

    -3.3281   8.5434   8.7076  10.5756  13.0262  14.8482  15.3204  19.5464

          k = 0.0000 0.1262 0.2524 (  1658 PWs)   bands (ev):

    -2.8623   6.2108   9.0650  10.9961  13.4969  15.4922  17.4527  18.2545

          k = 0.0000 0.1262 0.3786 (  1659 PWs)   bands (ev):

    -2.0882   3.9949   9.7878  11.6959  14.2326  15.4428  16.2335  17.1714

          k = 0.0000 0.1262 0.5047 (  1662 PWs)   bands (ev):

    -1.0093   2.0409  10.7961  12.6729  13.6386  15.2375  15.4312  17.2560

          k = 0.0000 0.1262-0.6309 (  1658 PWs)   bands (ev):

     0.3693   0.3693  12.0831  12.0831  13.9219  13.9219  16.4889  16.4889

[...]
         2           Si  tau(   2) = (   0.3998765   0.3998765   0.3998765  )

     number of k points=    56  Fermi-Dirac smearing, width (Ry)=  0.0150
                       cart. coord. in units 2pi/alat
        k(    1) = (   0.0000000   0.0000000   0.0000000), wk =   0.0020000
        k(    2) = (   0.0000000   0.0000000   0.1250386), wk =   0.0120000
        k(    3) = (   0.0000000   0.0000000   0.2500772), wk =   0.0120000
        k(    4) = (   0.0000000   0.0000000   0.3751158), wk =   0.0120000
        k(    5) = (   0.0000000   0.0000000   0.5001544), wk =   0.0120000
        k(    6) = (   0.0000000   0.0000000  -0.6251930), wk =   0.0060000
        k(    7) = (   0.0000000   0.1250386   0.1250386), wk =   0.0240000
        k(    8) = (   0.0000000   0.1250386   0.2500772), wk =   0.0480000
        k(    9) = (   0.0000000   0.1250386   0.3751158), wk =   0.0480000
        k(   10) = (   0.0000000   0.1250386   0.5001544), wk =   0.0480000
        k(   11) = (   0.0000000   0.1250386  -0.6251930), wk =   0.0240000
        k(   12) = (   0.0000000   0.2500772   0.2500772), wk =   0.0240000
        k(   13) = (   0.0000000   0.2500772   0.3751158), wk =   0.0480000
        k(   14) = (   0.0000000   0.2500772   0.5001544), wk =   0.0480000
        k(   15) = (   0.0000000   0.2500772  -0.6251930), wk =   0.0240000
        k(   16) = (   0.0000000   0.3751158   0.3751158), wk =   0.0240000
        k(   17) = (   0.0000000   0.3751158   0.5001544), wk =   0.0480000
        k(   18) = (   0.0000000   0.3751158  -0.6251930), wk =   0.0240000
        k(   19) = (   0.0000000   0.5001544   0.5001544), wk =   0.0240000
        k(   20) = (   0.0000000   0.5001544  -0.6251930), wk =   0.0240000
        k(   21) = (   0.0000000  -0.6251930  -0.6251930), wk =   0.0060000
        k(   22) = (   0.1250386   0.1250386   0.1250386), wk =   0.0160000
        k(   23) = (   0.1250386   0.1250386   0.2500772), wk =   0.0480000
        k(   24) = (   0.1250386   0.1250386   0.3751158), wk =   0.0480000
        k(   25) = (   0.1250386   0.1250386   0.5001544), wk =   0.0480000
        k(   26) = (   0.1250386   0.1250386  -0.6251930), wk =   0.0240000
        k(   27) = (   0.1250386   0.2500772   0.2500772), wk =   0.0480000
        k(   28) = (   0.1250386   0.2500772   0.3751158), wk =   0.0960000
        k(   29) = (   0.1250386   0.2500772   0.5001544), wk =   0.0960000
        k(   30) = (   0.1250386   0.2500772  -0.6251930), wk =   0.0480000
        k(   31) = (   0.1250386   0.3751158   0.3751158), wk =   0.0480000
        k(   32) = (   0.1250386   0.3751158   0.5001544), wk =   0.0960000
        k(   33) = (   0.1250386   0.3751158  -0.6251930), wk =   0.0480000
        k(   34) = (   0.1250386   0.5001544   0.5001544), wk =   0.0480000
        k(   35) = (   0.1250386   0.5001544  -0.6251930), wk =   0.0480000
        k(   36) = (   0.1250386  -0.6251930  -0.6251930), wk =   0.0120000
        k(   37) = (   0.2500772   0.2500772   0.2500772), wk =   0.0160000
        k(   38) = (   0.2500772   0.2500772   0.3751158), wk =   0.0480000
        k(   39) = (   0.2500772   0.2500772   0.5001544), wk =   0.0480000
        k(   40) = (   0.2500772   0.2500772  -0.6251930), wk =   0.0240000
        k(   41) = (   0.2500772   0.3751158   0.3751158), wk =   0.0480000
        k(   42) = (   0.2500772   0.3751158   0.5001544), wk =   0.0960000
        k(   43) = (   0.2500772   0.3751158  -0.6251930), wk =   0.0480000
        k(   44) = (   0.2500772   0.5001544   0.5001544), wk =   0.0480000
        k(   45) = (   0.2500772   0.5001544  -0.6251930), wk =   0.0480000
        k(   46) = (   0.2500772  -0.6251930  -0.6251930), wk =   0.0120000
        k(   47) = (   0.3751158   0.3751158   0.3751158), wk =   0.0160000
        k(   48) = (   0.3751158   0.3751158   0.5001544), wk =   0.0480000
        k(   49) = (   0.3751158   0.3751158  -0.6251930), wk =   0.0240000
        k(   50) = (   0.3751158   0.5001544   0.5001544), wk =   0.0480000
        k(   51) = (   0.3751158   0.5001544  -0.6251930), wk =   0.0480000
        k(   52) = (   0.3751158  -0.6251930  -0.6251930), wk =   0.0120000
        k(   53) = (   0.5001544   0.5001544   0.5001544), wk =   0.0160000
        k(   54) = (   0.5001544   0.5001544  -0.6251930), wk =   0.0240000
        k(   55) = (   0.5001544  -0.6251930  -0.6251930), wk =   0.0120000
        k(   56) = (  -0.6251930  -0.6251930  -0.6251930), wk =   0.0020000

     Dense  grid:     9459 G-vectors     FFT dimensions: (  27,  27,  27)

     Smooth grid:     6763 G-vectors     FFT dimensions: (  24,  24,  24)

     Estimated max dynamical RAM per process >       5.44 MB

     Estimated total dynamical RAM >      21.76 MB

     Initial potential from superposition of free atoms
     Check: negative starting charge=   -0.002860

     starting charge    7.99874, renormalised to    8.00000

     negative rho (up, down):  2.860E-03 0.000E+00
     Starting wfcs are   16 randomized atomic wfcs
     Checking if some PAW data can be deallocated... 

     total cpu time spent up to now is       28.3 secs

     Self-consistent Calculation

     iteration #  1     ecut=    40.00 Ry     beta= 0.70
     Davidson diagonalization with overlap
     ethr =  1.00E-06,  avg # of iterations =  9.0

     negative rho (up, down):  3.080E-03 0.000E+00

     total cpu time spent up to now is       28.7 secs

     total energy              =     -93.37889890 Ry
     Harris-Foulkes estimate   =     -93.38126893 Ry
     estimated scf accuracy    <       0.00709679 Ry

     iteration #  2     ecut=    40.00 Ry     beta= 0.70
     Davidson diagonalization with overlap
     ethr =  8.87E-05,  avg # of iterations =  1.0

     negative rho (up, down):  3.292E-03 0.000E+00

     total cpu time spent up to now is       28.8 secs

     total energy              =     -93.37902135 Ry
     Harris-Foulkes estimate   =     -93.37911389 Ry
     estimated scf accuracy    <       0.00036470 Ry

     iteration #  3     ecut=    40.00 Ry     beta= 0.70
     Davidson diagonalization with overlap
     ethr =  4.56E-06,  avg # of iterations =  1.1

     negative rho (up, down):  3.363E-03 0.000E+00

     total cpu time spent up to now is       28.9 secs

     total energy              =     -93.37904193 Ry
     Harris-Foulkes estimate   =     -93.37904293 Ry
     estimated scf accuracy    <       0.00000369 Ry

     iteration #  4     ecut=    40.00 Ry     beta= 0.70
     Davidson diagonalization with overlap
     ethr =  4.61E-08,  avg # of iterations =  3.1

     negative rho (up, down):  3.435E-03 0.000E+00

     total cpu time spent up to now is       29.1 secs

     total energy              =     -93.37904509 Ry
     Harris-Foulkes estimate   =     -93.37904534 Ry
     estimated scf accuracy    <       0.00000050 Ry

     iteration #  5     ecut=    40.00 Ry     beta= 0.70
     Davidson diagonalization with overlap
     ethr =  6.29E-09,  avg # of iterations =  2.0

     negative rho (up, down):  3.463E-03 0.000E+00

     total cpu time spent up to now is       29.2 secs

     total energy              =     -93.37904523 Ry
     Harris-Foulkes estimate   =     -93.37904523 Ry
     estimated scf accuracy    <       0.00000003 Ry

     iteration #  6     ecut=    40.00 Ry     beta= 0.70
     Davidson diagonalization with overlap
     ethr =  3.16E-10,  avg # of iterations =  2.6

     negative rho (up, down):  3.462E-03 0.000E+00

     total cpu time spent up to now is       29.4 secs

     total energy              =     -93.37904523 Ry
     Harris-Foulkes estimate   =     -93.37904524 Ry
     estimated scf accuracy    <          3.8E-09 Ry

     iteration #  7     ecut=    40.00 Ry     beta= 0.70
     Davidson diagonalization with overlap
     ethr =  4.80E-11,  avg # of iterations =  2.1

     negative rho (up, down):  3.463E-03 0.000E+00

     total cpu time spent up to now is       29.6 secs

     End of self-consistent calculation

          k = 0.0000 0.0000 0.0000 (   847 PWs)   bands (ev):

    -3.7637   9.9275   9.9275   9.9275  11.5147  12.8565  12.8565  21.7577

          k = 0.0000 0.0000 0.1250 (   843 PWs)   bands (ev):

    -3.6110   8.1276  10.0654  10.0654  11.9940  13.0116  14.5701  20.4330

          k = 0.0000 0.0000 0.2501 (   840 PWs)   bands (ev):

    -3.1534   5.7600  10.4788  10.4788  12.4722  13.4767  17.6264  18.4716

          k = 0.0000 0.0000 0.3751 (   840 PWs)   bands (ev):

    -2.3931   3.5828  11.1669  11.1669  13.1778  14.2512  16.5631  16.5631

          k = 0.0000 0.0000 0.5002 (   852 PWs)   bands (ev):

    -1.3334   1.6631  12.1273  12.1273  14.1315  14.8411  14.8411  15.3339

          k = 0.0000 0.0000-0.6252 (   852 PWs)   bands (ev):

     0.0209   0.0209  13.3553  13.3553  13.3553  13.3553  15.3147  15.3147

          k = 0.0000 0.1250 0.1250 (   847 PWs)   bands (ev):

    -3.4584   8.1506   8.4036  10.2033  12.5346  14.4032  14.9607  18.9688

          k = 0.0000 0.1250 0.2501 (   834 PWs)   bands (ev):

    -3.0012   5.9025   8.7142  10.6165  13.0194  15.0687  16.9309  17.7858

          k = 0.0000 0.1250 0.3751 (   837 PWs)   bands (ev):

    -2.2415   3.7292   9.4225  11.3041  13.7426  14.9667  15.8049  16.6686

          k = 0.0000 0.1250 0.5002 (   842 PWs)   bands (ev):

    -1.1825   1.8115  10.4119  12.2635  13.1997  14.7246  14.9678  16.8164

          k = 0.0000 0.1250-0.6252 (   842 PWs)   bands (ev):

     0.1707   0.1707  11.6746  11.6746  13.4889  13.4890  15.9459  15.9459

          k = 0.0000 0.2501 0.2501 (   846 PWs)   bands (ev):

    -2.5451   6.1843   6.5104  11.0292  13.5060  14.7820  17.7142  18.2074

          k = 0.0000 0.2501 0.3751 (   848 PWs)   bands (ev):

    -1.7871   4.1656   7.0831  11.7152  12.7490  14.2323  16.9258  18.7115

          k = 0.0000 0.2501 0.5002 (   843 PWs)   bands (ev):

    -0.7307   2.2555   8.0886  10.9355  12.6706  15.2202  15.3353  17.8710

          k = 0.0000 0.2501-0.6252 (   844 PWs)   bands (ev):

     0.6193   0.6193   9.3765   9.3765  13.8859  13.8859  16.4497  16.4497

          k = 0.0000 0.3751 0.3751 (   852 PWs)   bands (ev):

    -1.0321   4.7244   5.0966  10.6720  12.3971  14.9510  16.9093  19.3937

          k = 0.0000 0.3751 0.5002 (   847 PWs)   bands (ev):

     0.0200   2.9900   5.9467   8.8283  13.3421  15.8686  15.9228  18.4314

          k = 0.0000 0.3751-0.6252 (   844 PWs)   bands (ev):

     1.3640   1.3640   7.2476   7.2477  14.5280  14.5280  17.1174  17.1174

          k = 0.0000 0.5002 0.5002 (   850 PWs)   bands (ev):

     1.0657   3.8341   4.2386   6.9637  14.2581  16.1301  16.8556  18.7252

          k = 0.0000 0.5002-0.6252 (   852 PWs)   bands (ev):

     2.3980   2.3980   5.3710   5.3710  15.3381  15.3381  17.9397  17.9397

          k = 0.0000-0.6252-0.6252 (   840 PWs)   bands (ev):

     3.5352   3.5352   3.9515   3.9515  15.8705  15.8705  18.1725  18.1725

          k = 0.1250 0.1250 0.1250 (   847 PWs)   bands (ev):

    -3.3059   8.1836   8.5465   8.5465  13.9785  15.1102  15.1102  18.4999

          k = 0.1250 0.1250 0.2501 (   837 PWs)   bands (ev):

    -2.8490   6.0449   8.7494   8.9749  14.6469  15.5582  16.7848  17.3543

          k = 0.1250 0.1250 0.3751 (   839 PWs)   bands (ev):

    -2.0899   3.8756   9.4527   9.6879  14.9112  15.3166  15.3358  16.3034

          k = 0.1250 0.1250 0.5002 (   848 PWs)   bands (ev):

    -1.0318   1.9598  10.4353  10.6840  13.1870  13.5084  16.2391  17.3429

          k = 0.1250 0.1250-0.6252 (   842 PWs)   bands (ev):

     0.3204   0.3204  11.6853  11.6853  11.9597  11.9597  17.3336  17.3336

          k = 0.1250 0.2501 0.2501 (   837 PWs)   bands (ev):

    -2.3933   6.3250   6.6550   9.2964  14.8920  15.4068  17.1185  17.9108

          k = 0.1250 0.2501 0.3751 (   848 PWs)   bands (ev):

    -1.6359   4.3117   7.2253  10.0037  12.8793  15.5048  16.1045  18.1952

          k = 0.1250 0.2501 0.5002 (   847 PWs)   bands (ev):

    -0.5802   2.4036   8.2299  10.9911  11.0723  13.7678  17.0046  18.5570

          k = 0.1250 0.2501-0.6252 (   842 PWs)   bands (ev):

     0.7687   0.7687   9.5162   9.5162  12.2504  12.2504  18.0042  18.0042

          k = 0.1250 0.3751 0.3751 (   854 PWs)   bands (ev):

    -0.8814   4.8708   5.2418  10.7075  10.8113  15.7573  16.7318  16.7758

          k = 0.1250 0.3751 0.5002 (   843 PWs)   bands (ev):

     0.1700   3.1378   6.0917   8.9707  11.6885  14.4105  17.1834  17.5564

          k = 0.1250 0.3751-0.6252 (   850 PWs)   bands (ev):

     1.5130   1.5130   7.3916   7.3916  12.9342  12.9342  17.8731  17.8731

          k = 0.1250 0.5002 0.5002 (   843 PWs)   bands (ev):

     1.2150   3.9826   4.3840   7.1083  12.6561  14.9529  15.9246  17.6320

          k = 0.1250 0.5002-0.6252 (   850 PWs)   bands (ev):

     2.5465   2.5465   5.5168   5.5168  13.8625  13.8626  16.6612  16.6612

          k = 0.1250-0.6252-0.6252 (   848 PWs)   bands (ev):

     3.6843   3.6843   4.0969   4.0969  14.6850  14.6851  15.6510  15.6510

          k = 0.2501 0.2501 0.2501 (   844 PWs)   bands (ev):

    -1.9385   6.6205   7.0888   7.0888  14.7872  15.6684  15.6684  17.5376

          k = 0.2501 0.2501 0.3751 (   849 PWs)   bands (ev):

    -1.1828   4.7472   7.5213   7.8114  13.0631  13.5526  16.1015  18.2641

          k = 0.2501 0.2501 0.5002 (   850 PWs)   bands (ev):

    -0.1295   2.8468   8.5169   8.8219  11.3171  11.6979  16.9579  18.5144

          k = 0.2501 0.2501-0.6252 (   844 PWs)   bands (ev):

     1.2162   1.2162   9.7892   9.7892  10.1186  10.1186  17.9241  17.9241

          k = 0.2501 0.3751 0.3751 (   856 PWs)   bands (ev):

    -0.4299   5.3051   5.6773   8.3948  11.2203  13.7713  14.3309  18.4926

          k = 0.2501 0.3751 0.5002 (   844 PWs)   bands (ev):

     0.6192   3.5799   6.5242   9.3939   9.3946  12.2129  15.0243  17.4917

          k = 0.2501 0.3751-0.6252 (   846 PWs)   bands (ev):

     1.9592   1.9592   7.8208   7.8208  10.6732  10.6732  16.1889  16.1889

          k = 0.2501 0.5002 0.5002 (   851 PWs)   bands (ev):

     1.6621   4.4261   4.8200   7.5405  10.3863  12.9282  13.5025  15.9276

          k = 0.2501 0.5002-0.6252 (   850 PWs)   bands (ev):

     2.9909   2.9909   5.9531   5.9531  11.6466  11.6466  14.4806  14.4806

          k = 0.2501-0.6252-0.6252 (   856 PWs)   bands (ev):

     4.1301   4.1301   4.5332   4.5332  12.6505  12.6505  13.2233  13.2233

          k = 0.3751 0.3751 0.3751 (   841 PWs)   bands (ev):

     0.3202   5.8843   6.4030   6.4030  11.5297  12.1852  12.1852  17.2991

          k = 0.3751 0.3751 0.5002 (   847 PWs)   bands (ev):

     1.3655   4.3110   7.0992   7.4183   9.9207  10.3128  12.9802  15.6800

          k = 0.3751 0.3751-0.6252 (   858 PWs)   bands (ev):

     2.6999   2.6999   8.3800   8.3800   8.7223   8.7223  14.2088  14.2088

          k = 0.3751 0.5002 0.5002 (   852 PWs)   bands (ev):

     2.4047   5.1560   5.5468   8.2521   8.2781  10.9385  11.3450  13.9366

          k = 0.3751 0.5002-0.6252 (   850 PWs)   bands (ev):

     3.7285   3.7285   6.6754   6.6754   9.5607   9.5607  12.4198  12.4198

          k = 0.3751-0.6252-0.6252 (   856 PWs)   bands (ev):

     4.8668   4.8668   5.2602   5.2602  10.6473  10.6473  11.0626  11.0626

          k = 0.5002 0.5002 0.5002 (   861 PWs)   bands (ev):

     3.4384   6.0210   6.5639   6.5639   8.9245   9.4655   9.4655  12.1376

          k = 0.5002 0.5002-0.6252 (   870 PWs)   bands (ev):

     4.7517   4.7517   7.5241   7.5241   7.8707   7.8707  10.5930  10.5930

          k = 0.5002-0.6252-0.6252 (   860 PWs)   bands (ev):

     5.8780   5.8780   6.2778   6.2778   8.8504   8.8504   9.1812   9.1812

          k =-0.6252-0.6252-0.6252 (   840 PWs)   bands (ev):

     6.8781   6.8781   7.5853   7.5853   7.5853   7.5853   7.5853   7.5853

     the Fermi energy is    10.4651 ev

!    total energy              =     -93.37904524 Ry
     Harris-Foulkes estimate   =     -93.37904524 Ry
     estimated scf accuracy    <          1.8E-11 Ry

     total all-electron energy =       -93.379045 Ry

     The total energy is the sum of the following terms:

     one-electron contribution =      10.01174299 Ry
     hartree contribution      =       0.06231042 Ry
     xc contribution           =      -5.68519408 Ry
     ewald contribution        =     -19.97452507 Ry
     one-center paw contrib.   =     -77.78437876 Ry
     smearing contrib. (-TS)   =      -0.00900075 Ry

     convergence has been achieved in   7 iterations

     negative rho (up, down):  3.463E-03 0.000E+00

     Forces acting on atoms (cartesian axes, Ry/au):

     atom    1 type  1   force =     0.00000000    0.00000000    0.00000000
     atom    2 type  1   force =     0.00000000    0.00000000    0.00000000

     Total force =     0.000000     Total SCF correction =     0.000000


     Computing stress (Cartesian axis) and pressure


     negative rho (up, down):  3.463E-03 0.000E+00
          total   stress  (Ry/bohr**3)                   (kbar)     P=   -0.09
  -0.00000061   0.00000000   0.00000000         -0.09      0.00      0.00
   0.00000000  -0.00000061   0.00000000          0.00     -0.09      0.00
   0.00000000   0.00000000  -0.00000061          0.00      0.00     -0.09


     Writing output data file relax.save/
 
     init_run     :      0.99s CPU      1.02s WALL (       2 calls)
     electrons    :     18.94s CPU     20.12s WALL (       9 calls)
     update_pot   :      2.39s CPU      2.40s WALL (       7 calls)
     forces       :      1.60s CPU      1.60s WALL (       9 calls)
     stress       :      3.41s CPU      3.42s WALL (       9 calls)

     Called by init_run:
     wfcinit      :      0.25s CPU      0.27s WALL (       2 calls)
     potinit      :      0.21s CPU      0.21s WALL (       2 calls)
     hinit0       :      0.49s CPU      0.50s WALL (       2 calls)

     Called by electrons:
     c_bands      :     14.23s CPU     15.24s WALL (      61 calls)
     sum_band     :      2.20s CPU      2.33s WALL (      61 calls)
     v_of_rho     :      0.25s CPU      0.25s WALL (      67 calls)
     newd         :      0.11s CPU      0.11s WALL (      67 calls)
     PAW_pot      :      2.73s CPU      2.75s WALL (      74 calls)
     mix_rho      :      0.03s CPU      0.03s WALL (      61 calls)

     Called by c_bands:
     init_us_2    :      0.39s CPU      0.41s WALL (    8344 calls)
     cegterg      :     13.44s CPU     14.39s WALL (    3416 calls)

     Called by sum_band:
     sum_band:bec :      0.01s CPU      0.01s WALL (    3808 calls)
     addusdens    :      0.11s CPU      0.12s WALL (      61 calls)

     Called by *egterg:
     h_psi        :     10.45s CPU     11.19s WALL (   13904 calls)
     s_psi        :      0.21s CPU      0.23s WALL (   13904 calls)
     g_psi        :      0.07s CPU      0.07s WALL (   10376 calls)
     cdiaghg      :      1.39s CPU      1.49s WALL (   13232 calls)

     Called by h_psi:
     h_psi:pot    :     10.39s CPU     11.12s WALL (   13904 calls)
     h_psi:calbec :      0.45s CPU      0.48s WALL (   13904 calls)
     vloc_psi     :      9.65s CPU     10.32s WALL (   13904 calls)
     add_vuspsi   :      0.22s CPU      0.24s WALL (   13904 calls)

     General routines
     calbec       :      0.64s CPU      0.69s WALL (   20232 calls)
     fft          :      0.45s CPU      0.46s WALL (    1097 calls)
     ffts         :      0.01s CPU      0.01s WALL (     128 calls)
     fftw         :     10.22s CPU     10.92s WALL (  201286 calls)
     interpolate  :      0.02s CPU      0.02s WALL (      67 calls)
 
     Parallel routines
     fft_scatt_xy :      1.37s CPU      1.46s WALL (  202511 calls)
     fft_scatt_yz :      4.95s CPU      5.26s WALL (  202511 calls)
 
     PWSCF        :    28.31s CPU        29.67s WALL

 
   This run was terminated on:  10:36: 8  18Jul2019            

=------------------------------------------------------------------------------=
   JOB DONE.
=------------------------------------------------------------------------------=
