{
    "directories":
        {
            "elem_template_dir": "/home/szymansk/Elem_Templates",
            "cmpd_template_dir": "/home/szymansk/Optimization_Sets/Sr/Input"
        },
    "compounds": [
        {
            "formula": "SrO",
            "lattice_type": "RS",
            "lattice_constant": 5.204,
            "phonon_frequency": [0.0,0.0,0.0,5.62,5.62,5.62]
        },
        {
            "formula": "SrS",
            "lattice_type": "RS",
            "lattice_constant": 6.063,
            "band_gap": 2.536
        },
        {
            "formula": "SrS",
            "lattice_type": "ZB",
            "eos": [37.20453, 32.47610, 5.547]
        },
        {
            "formula": "SrTiO3",
            "lattice_type": "per",
            "lattice_constant": 3.941
        }
    ]
}
